 Entering Gaussian System, Link 0=g16
 Initial command:
 /software/gaussian/g16A03m/g16/l1.exe "/home/slamav/GAUSS_SCR/Gau-161629.inp" -scrdir="/home/slamav/GAUSS_SCR/" -exedir="/home/slamav/test_mmpol/amoeba/l1:/home/slamav/test_mmpol/amoeba/exe-dir:/software/gaussian/g16A03m/g16/bsd:/software/gaussian/g16A03m/g16"
 Entering Link 1 = /software/gaussian/g16A03m/g16/l1.exe PID=    161630.
  
 Copyright (c) 1988,1990,1992,1993,1995,1998,2003,2009,2016,
            Gaussian, Inc.  All Rights Reserved.
  
 This is part of the Gaussian(R) 16 program.  It is based on
 the Gaussian(R) 09 system (copyright 2009, Gaussian, Inc.),
 the Gaussian(R) 03 system (copyright 2003, Gaussian, Inc.),
 the Gaussian(R) 98 system (copyright 1998, Gaussian, Inc.),
 the Gaussian(R) 94 system (copyright 1995, Gaussian, Inc.),
 the Gaussian 92(TM) system (copyright 1992, Gaussian, Inc.),
 the Gaussian 90(TM) system (copyright 1990, Gaussian, Inc.),
 the Gaussian 88(TM) system (copyright 1988, Gaussian, Inc.),
 the Gaussian 86(TM) system (copyright 1986, Carnegie Mellon
 University), and the Gaussian 82(TM) system (copyright 1983,
 Carnegie Mellon University). Gaussian is a federally registered
 trademark of Gaussian, Inc.
  
 This software contains proprietary and confidential information,
 including trade secrets, belonging to Gaussian, Inc.
  
 This software is provided under written license and may be
 used, copied, transmitted, or stored only in accord with that
 written license.
  
 The following legend is applicable only to US Government
 contracts under FAR:
  
                    RESTRICTED RIGHTS LEGEND
  
 Use, reproduction and disclosure by the US Government is
 subject to restrictions as set forth in subparagraphs (a)
 and (c) of the Commercial Computer Software - Restricted
 Rights clause in FAR 52.227-19.
  
 Gaussian, Inc.
 340 Quinnipiac St., Bldg. 40, Wallingford CT 06492
  
  
 ---------------------------------------------------------------
 Warning -- This program may not be used in any manner that
 competes with the business of Gaussian, Inc. or will provide
 assistance to any competitor of Gaussian, Inc.  The licensee
 of this program is prohibited from giving any competitor of
 Gaussian, Inc. access to this program.  By using this program,
 the user acknowledges that Gaussian, Inc. is engaged in the
 business of creating and licensing software in the field of
 computational chemistry and represents and warrants to the
 licensee that it is not a competitor of Gaussian, Inc. and that
 it will not use this program in any manner prohibited above.
 ---------------------------------------------------------------
  

 Cite this work as:
 Gaussian 16, Revision A.03,
 M. J. Frisch, G. W. Trucks, H. B. Schlegel, G. E. Scuseria, 
 M. A. Robb, J. R. Cheeseman, G. Scalmani, V. Barone, 
 G. A. Petersson, H. Nakatsuji, X. Li, M. Caricato, A. V. Marenich, 
 J. Bloino, B. G. Janesko, R. Gomperts, B. Mennucci, H. P. Hratchian, 
 J. V. Ortiz, A. F. Izmaylov, J. L. Sonnenberg, D. Williams-Young, 
 F. Ding, F. Lipparini, F. Egidi, J. Goings, B. Peng, A. Petrone, 
 T. Henderson, D. Ranasinghe, V. G. Zakrzewski, J. Gao, N. Rega, 
 G. Zheng, W. Liang, M. Hada, M. Ehara, K. Toyota, R. Fukuda, 
 J. Hasegawa, M. Ishida, T. Nakajima, Y. Honda, O. Kitao, H. Nakai, 
 T. Vreven, K. Throssell, J. A. Montgomery, Jr., J. E. Peralta, 
 F. Ogliaro, M. J. Bearpark, J. J. Heyd, E. N. Brothers, K. N. Kudin, 
 V. N. Staroverov, T. A. Keith, R. Kobayashi, J. Normand, 
 K. Raghavachari, A. P. Rendell, J. C. Burant, S. S. Iyengar, 
 J. Tomasi, M. Cossi, J. M. Millam, M. Klene, C. Adamo, R. Cammi, 
 J. W. Ochterski, R. L. Martin, K. Morokuma, O. Farkas, 
 J. B. Foresman, and D. J. Fox, Gaussian, Inc., Wallingford CT, 2016.
 
 ******************************************
 Gaussian 16:  ES64L-G16RevA.03 25-Dec-2016
                15-Apr-2021 
 ******************************************
 -------------------------------------------------------
 #p #p b3lyp/3-21G nosymm mmpol force int(grid=finegrid)
 -------------------------------------------------------
 1/10=7,30=1,38=1/1,3;
 2/12=2,15=1,17=6,18=5,40=1/2;
 3/5=5,11=2,25=1,30=1,71=1,74=-5,75=-4,180=1/1,2,3;
 4//1;
 5/5=2,38=5/2;
 6/7=2,8=2,9=2,10=2,28=1/1;
 7/29=1,30=1/1,2,3,16;
 1/10=7,30=1/3;
 99//99;
 Leave Link    1 at Thu Apr 15 11:42:21 2021, MaxMem=           0 cpu:               0.1 elap:               0.3
 (Enter /software/gaussian/g16A03m/g16/l101.exe)
 -----------
 test amoeba
 -----------
 Symbolic Z-matrix:
 Charge =  0 Multiplicity = 1
 He                    10000.    10000.    10000. 
 
 ITRead=  0
 MicOpt= -1
 NAtoms=      1 NQM=        1 NQMF=       0 NMMI=      0 NMMIF=      0
                NMic=       0 NMicF=      0.
                    Isotopes and Nuclear Properties:
 (Nuclear quadrupole moments (NQMom) in fm**2, nuclear magnetic moments (NMagM)
  in nuclear magnetons)

  Atom         1
 IAtWgt=           4
 AtmWgt=   4.0026032
 NucSpn=           0
 AtZEff=   0.0000000
 NQMom=    0.0000000
 NMagM=    0.0000000
 AtZNuc=   2.0000000
 Leave Link  101 at Thu Apr 15 11:42:21 2021, MaxMem=   104857600 cpu:               0.3 elap:               0.4
 (Enter /software/gaussian/g16A03m/g16/l103.exe)

 GradGradGradGradGradGradGradGradGradGradGradGradGradGradGradGradGradGrad
 Berny optimization.
 Initialization pass.
 Trust Radius=3.00D-01 FncErr=1.00D-07 GrdErr=1.00D-07 EigMax=2.50D+02 EigMin=1.00D-04
 Number of steps in this run=      2 maximum allowed number of steps=      2.
 GradGradGradGradGradGradGradGradGradGradGradGradGradGradGradGradGradGrad

 Leave Link  103 at Thu Apr 15 11:42:21 2021, MaxMem=   104857600 cpu:               0.1 elap:               0.2
 (Enter /software/gaussian/g16A03m/g16/l202.exe)
                          Input orientation:                          
 ---------------------------------------------------------------------
 Center     Atomic      Atomic             Coordinates (Angstroms)
 Number     Number       Type             X           Y           Z
 ---------------------------------------------------------------------
      1          2           0    10000.00000010000.00000010000.000000
 ---------------------------------------------------------------------
 Symmetry turned off by external request.
 Stoichiometry    He
 Framework group  OH[O(He)]
 Deg. of freedom     0
 Full point group                 OH      NOp  48
 Leave Link  202 at Thu Apr 15 11:42:22 2021, MaxMem=   104857600 cpu:               0.0 elap:               0.1
 (Enter /software/gaussian/g16A03m/g16/l301.exe)
 NAtMM, NumPol:                       12                       12
    2889    2921    2945    2981    2993    3005    3125    3245    3257    3293
    3305    3317    3329    3425    3437    3725    3737    4601    4613    7205
    7217    7229    7229   13085   13085   13085   13086   13086   13086   13086
   13086   13086   13086   13086   13086   13086   13206   13278   13350   14646
   14646   14645
 MMPol Atoms:
   AN             X           Y           Z   Frag
    6        3.9420     -4.3772      0.1952      2
    1        4.1993     -6.4194      0.3494      2
    1        3.9716     -3.5608      2.0906      2
    1        5.5310     -3.6041     -0.8725      2
    6        1.4689     -3.7621     -1.1153      2
    8        1.3855     -2.3930     -2.9514      2
    7       -0.6879     -4.7534     -0.1695      2
    1       -2.3176     -4.3439     -1.0711      2
    6       -0.8742     -6.4472      2.0173      2
    1       -2.8561     -6.6150      2.5744      2
    1       -0.1497     -8.3142      1.5084      2
    1        0.2092     -5.6854      3.6028      2
 List of MM Atoms endowed of a Polarizability :
     #    Atom             X           Y           Z
     1       1        3.9420     -4.3772      0.1952      9.0023
     2       2        4.1993     -6.4194      0.3494      3.3472
     3       3        3.9716     -3.5608      2.0906      3.3472
     4       4        5.5310     -3.6041     -0.8725      3.3472
     5       5        1.4689     -3.7621     -1.1153      9.0023
     6       6        1.3855     -2.3930     -2.9514      5.6484
     7       7       -0.6879     -4.7534     -0.1695      7.2410
     8       8       -2.3176     -4.3439     -1.0711      3.3472
     9       9       -0.8742     -6.4472      2.0173      9.0023
    10      10       -2.8561     -6.6150      2.5744      3.3472
    11      11       -0.1497     -8.3142      1.5084      3.3472
    12      12        0.2092     -5.6854      3.6028      3.3472
 I12:          1
 I12:=       2       3       4       5
 I13:          1
 I13:=       6       7
 I14:          1
 I14:=       8       9
 I15:          1
 I15:=      10      11      12
 IP11:          1
 IP11:=       1       2       3       4
 IP12:          1
 IP12:=       5       6       7       8
 IP13:          1
 IP13:=       9      10      11      12
 IP14:          1
 I12:          2
 I12:=       1
 I13:          2
 I13:=       3       4       5
 I14:          2
 I14:=       6       7
 I15:          2
 I15:=       8       9
 IP11:          2
 IP11:=       1       2       3       4
 IP12:          2
 IP12:=       5       6       7       8
 IP13:          2
 IP13:=       9      10      11      12
 IP14:          2
 I12:          3
 I12:=       1
 I13:          3
 I13:=       2       4       5
 I14:          3
 I14:=       6       7
 I15:          3
 I15:=       8       9
 IP11:          3
 IP11:=       1       2       3       4
 IP12:          3
 IP12:=       5       6       7       8
 IP13:          3
 IP13:=       9      10      11      12
 IP14:          3
 I12:          4
 I12:=       1
 I13:          4
 I13:=       2       3       5
 I14:          4
 I14:=       6       7
 I15:          4
 I15:=       8       9
 IP11:          4
 IP11:=       1       2       3       4
 IP12:          4
 IP12:=       5       6       7       8
 IP13:          4
 IP13:=       9      10      11      12
 IP14:          4
 I12:          5
 I12:=       1       6       7
 I13:          5
 I13:=       2       3       4       8       9
 I14:          5
 I14:=      10      11      12
 I15:          5
 IP11:          5
 IP11:=       5       6       7       8
 IP12:          5
 IP12:=       1       2       3       4       9      10      11      12
 IP13:          5
 IP14:          5
 I12:          6
 I12:=       5
 I13:          6
 I13:=       1       7
 I14:          6
 I14:=       2       3       4       8       9
 I15:          6
 I15:=      10      11      12
 IP11:          6
 IP11:=       5       6       7       8
 IP12:          6
 IP12:=       1       2       3       4       9      10      11      12
 IP13:          6
 IP14:          6
 I12:          7
 I12:=       5       8       9
 I13:          7
 I13:=       1       6      10      11      12
 I14:          7
 I14:=       2       3       4
 I15:          7
 IP11:          7
 IP11:=       5       6       7       8
 IP12:          7
 IP12:=       1       2       3       4       9      10      11      12
 IP13:          7
 IP14:          7
 I12:          8
 I12:=       7
 I13:          8
 I13:=       5       9
 I14:          8
 I14:=       1       6      10      11      12
 I15:          8
 I15:=       2       3       4
 IP11:          8
 IP11:=       5       6       7       8
 IP12:          8
 IP12:=       1       2       3       4       9      10      11      12
 IP13:          8
 IP14:          8
 I12:          9
 I12:=       7      10      11      12
 I13:          9
 I13:=       5       8
 I14:          9
 I14:=       1       6
 I15:          9
 I15:=       2       3       4
 IP11:          9
 IP11:=       9      10      11      12
 IP12:          9
 IP12:=       5       6       7       8
 IP13:          9
 IP13:=       1       2       3       4
 IP14:          9
 I12:         10
 I12:=       9
 I13:         10
 I13:=       7      11      12
 I14:         10
 I14:=       5       8
 I15:         10
 I15:=       1       6
 IP11:         10
 IP11:=       9      10      11      12
 IP12:         10
 IP12:=       5       6       7       8
 IP13:         10
 IP13:=       1       2       3       4
 IP14:         10
 I12:         11
 I12:=       9
 I13:         11
 I13:=       7      10      12
 I14:         11
 I14:=       5       8
 I15:         11
 I15:=       1       6
 IP11:         11
 IP11:=       9      10      11      12
 IP12:         11
 IP12:=       5       6       7       8
 IP13:         11
 IP13:=       1       2       3       4
 IP14:         11
 I12:         12
 I12:=       9
 I13:         12
 I13:=       7      10      11
 I14:         12
 I14:=       5       8
 I15:         12
 I15:=       1       6
 IP11:         12
 IP11:=       9      10      11      12
 IP12:         12
 IP12:=       5       6       7       8
 IP13:         12
 IP13:=       1       2       3       4
 IP14:         12
 Thole 
                 1 
      1   0.144231D+01
      2   0.122306D+01
      3   0.122306D+01
      4   0.122306D+01
      5   0.144231D+01
      6   0.133451D+01
      7   0.139091D+01
      8   0.122306D+01
      9   0.144231D+01
     10   0.122306D+01
     11   0.122306D+01
     12   0.122306D+01
 Standard basis: 3-21G (6D, 7F)
 Ernie: Thresh=  0.10000D-02 Tol=  0.10000D-05 Strict=F.
     2 basis functions,     3 primitive gaussians,     2 cartesian basis functions
     1 alpha electrons        1 beta electrons
       nuclear repulsion energy         0.0000000000 Hartrees.
 IExCor=  402 DFT=T Ex+Corr=B3LYP ExCW=0 ScaHFX=  0.200000
 ScaDFX=  0.800000  0.720000  1.000000  0.810000 ScalE2=  1.000000  1.000000
 IRadAn=      4 IRanWt=     -1 IRanGd=            0 ICorTp=0 IEmpDi=  4
 NAtoms=    1 NActive=    1 NUniq=    1 SFac= 1.00D+00 NAtFMM=   60 NAOKFM=F Big=F
 Integral buffers will be    131072 words long.
 Raffenetti 2 integral format.
 Two-electron integral symmetry is turned off.
 Leave Link  301 at Thu Apr 15 11:42:22 2021, MaxMem=   104857600 cpu:               0.1 elap:               0.3
 (Enter /software/gaussian/g16A03m/g16/l302.exe)
 NPDir=0 NMtPBC=     1 NCelOv=     1 NCel=       1 NClECP=     1 NCelD=      1
         NCelK=      1 NCelE2=     1 NClLst=     1 CellRange=     0.0.
 One-electron integrals computed using PRISM.
 NBasis=     2 RedAO= T EigKep=  4.05D-01  NBF=     2
 NBsUse=     2 1.00D-06 EigRej= -1.00D+00 NBFU=     2
 Precomputing XC quadrature grid using
 IXCGrd= 4 IRadAn=           4 IRanWt=          -1 IRanGd=           0 AccXCQ= 0.00D+00.
 Generated NRdTot=       0 NPtTot=           0 NUsed=           0 NTot=          32
 NSgBfM=     2     2     2     2     2 MxSgAt=     1 MxSgA2=     1.
 Leave Link  302 at Thu Apr 15 11:42:22 2021, MaxMem=   104857600 cpu:               0.2 elap:               0.3
 (Enter /software/gaussian/g16A03m/g16/l303.exe)
 DipDrv:  MaxL=1.
 Leave Link  303 at Thu Apr 15 11:42:23 2021, MaxMem=   104857600 cpu:               0.1 elap:               0.2
 (Enter /software/gaussian/g16A03m/g16/l401.exe)
 ExpMin= 3.83D-01 ExpMax= 1.36D+01 ExpMxC= 1.36D+01 IAcc=2 IRadAn=         4 AccDes= 0.00D+00
 Harris functional with IExCor=  402 and IRadAn=       4 diagonalized for initial guess.
 HarFok:  IExCor=  402 AccDes= 0.00D+00 IRadAn=         4 IDoV= 1 UseB2=F ITyADJ=14
 ICtDFT=  3500011 ScaDFX=  1.000000  1.000000  1.000000  1.000000
 FoFCou: FMM=F IPFlag=           0 FMFlag=      100000 FMFlg1=           0
         NFxFlg=           0 DoJE=T BraDBF=F KetDBF=T FulRan=T
         wScrn=  0.000000 ICntrl=       500 IOpCl=  0 I1Cent=   200000004 NGrid=           0
         NMat0=    1 NMatS0=      1 NMatT0=    0 NMatD0=    1 NMtDS0=    0 NMtDT0=    0
 Symmetry not used in FoFCou.
 Harris En= -2.87642230713302    
 JPrj=0 DoOrth=F DoCkMO=F.
 Leave Link  401 at Thu Apr 15 11:42:23 2021, MaxMem=   104857600 cpu:               0.1 elap:               0.3
 (Enter /software/gaussian/g16A03m/g16/l502.exe)
 Keep R1 ints in memory in canonical form, NReq=838787.
 FoFCou: FMM=F IPFlag=           0 FMFlag=           0 FMFlg1=           0
         NFxFlg=           0 DoJE=F BraDBF=F KetDBF=F FulRan=T
         wScrn=  0.000000 ICntrl=       600 IOpCl=  0 I1Cent=           0 NGrid=           0
         NMat0=    1 NMatS0=      3 NMatT0=    0 NMatD0=    1 NMtDS0=    0 NMtDT0=    0
 Symmetry not used in FoFCou.
 Two-electron integral symmetry not used.
 Closed shell SCF:
 Using DIIS extrapolation, IDIIS=  1040.
 NGot=   104857600 LenX=   104844562 LenY=   104843680
 Requested convergence on RMS density matrix=1.00D-08 within 128 cycles.
 Requested convergence on MAX density matrix=1.00D-06.
 Requested convergence on             energy=1.00D-06.
 No special actions if energy rises.
 Integral accuracy reduced to 1.0D-05 until final iterations.

 Cycle   1  Pass 0  IDiag  1:
       1      33      57      93     105     117     237     357     369     405
     417     429     441     537     549     837     849    1713    1725    4317
    4329    4341    4341   10197   10197   10197   10198   10198   10198   10198
   10198   10198   10198   10198   10198   10198   10318   10390   10462   11758
   11758   11757
       1      33      57      93     105     117     237     357     369     405
     417     429     441     537     549     837     849    1713    1725    4317
    4329    4341    4341   10197   10197   10197   10198   10198   10198   10198
   10198   10198   10198   10198   10198   10198   10318   10390   10462   11758
   11758   11757
 ============================================================
               QM/MM Polarizable Model (MMPol)
 ============================================================
   Force field type:          AMOEBA
   Solution method:           Matrix Inversion  (In Core   )
   # MM Atoms:                       12
     of which polarizable:           12
 ============================================================
 
 FoFPCM: IWhat = 3 DoEle= T DoNuc= T Delta=T   Init=T Scale=  1.000000
         MinMlt= 0 MaxMlt= 2 DoP2C= T NMatP=  1 NVecW=  0 NTs=      12
 PCMFMM: FMMI=F FMFlgI=      100000 FMFl1I=           0 NFxFlI=           0
         IHMeth=  1 Matrix=F
         UseFMM=F iWS= 2 IToler=13 Levels=10 Lmax=10 BoxLen=   0.0000
 PCMFMM: FMM=F FMFlag=    10101302 FMFlg1=           0 NFxFlg=    40000000
 ShPair: Thresh= 1.00D-12 NBox=     0 BxSize= 0.00D+00 RnKept= 0.00D+00
         NSMCal=                    3 NSMKep=                   3
 FoFCou: FMM=F IPFlag=           0 FMFlag=    10101302 FMFlg1=           0
         NFxFlg=    40000000 DoJE=F BraDBF=F KetDBF=T FulRan=T
         wScrn=  0.000000 ICntrl=      1100 IOpCl=  0 I1Cent=    10011024 NGrid=          12
         NMat0=    1 NMatS0=      1 NMatT0=    0 NMatD0=    1 NMtDS0=    0 NMtDT0=    0
 Symmetry not used in FoFCou.
 FoFCou:  KetSym=T NOpSet=  1 NOpAb=1 NOp=  1.
 FoFCou:  CnvScl= 1.00D+00 Thresh= 1.00D-12 IAcrcy=      10.
 ShPair: Thresh= 1.00D-12 NBox=     0 BxSize= 0.00D+00 RnKept= 0.00D+00
         NSMCal=                    3 NSMKep=                   3
 FoFCou: LinMIO=T DoNuc=T BraDBF=F KetDBF=T HaveP=T PDBF=F HaveZ=F HaveW=F
         NIJTC =       1 NIJTAt=       1 NIJTCD=       1 NIJTT =       3
         IJTBeg=       1 IJTEnd=       2 KLTBeg=       3 KLTEnd=       3
         IPTBeg=       1 IPTEnd=       1 IPTBCv=       1 IPTECv=       1
         IZTBeg=       1 IZTEnd=       1 IZTBCv=       3 IZTECv=       3
         IWTBeg=       3 IWTEnd=       3 IWTBCv=       3 IWTECv=       3
         INTBeg=       2 INTEnd=       2 IFTBCv=       3 IFTECv=       3
 NCel replicated for PrismC:     1
 CoulSu-InSpLW:  IPartL=    0 NPrtUS=    1 NPrtUL=    1 DoSpLW=F IThBeg=    0 IThEnd=    0 NThAct=    1.
 CoulSu:  IncDef=  1024 NBBP=             48 NTPThr=   100 NPartT=    1 Incr=           1 LDynOK=F GPUOK=F.
 CoulSu:  NPrtUS=   1 ThrOK=F IAlg=1 NPAlg=1 LenDen=           0 LWGrdD=           0 DoCopy=F ISkipM=0
          DoSpLW=F IThBeg=    0 IThEnd=    0.
 CoulSu:  IPart=    0 IPartR=    0 CPU=   -1 GPU=   -1.
 Enter PrismC:  IPart=  0 JobTyp= 6 DoJE=F Cont=F.
 PrismC:  IPart=     0 DynPar=F LinDyn=F Incr=           1 UseFst=F UseS4=F ISplat=2.
 PrismC was handed   104842700 working-precision words and     4 shell-pairs
 IPart=  0 NShTot=          48 NShNF=          48 NShFF=           0 MinMC=     958
           NShCPU=          48 NBCPU=           4 AvBCPU=        12.0
           NShGPU=           0 NBGPU=           0 AvBGPU=         0.0
 CoulSu-ThDecC:  IPartSL=    0    0 NPrtUSL=    1    1 IThBeg=    0 IThEnd=    0 CPU=   -1 GPU=   -1 NThAct=    1.
 CoulSu:  NxtVal=              2 LenVP=      104842701 MinMC=     958.
 VMM 
                 1             2             3             4             5 
      1   0.000000D+00  0.000000D+00  0.000000D+00  0.000000D+00  0.000000D+00
      2   0.000000D+00  0.000000D+00  0.000000D+00  0.000000D+00  0.000000D+00
      3   0.000000D+00  0.000000D+00  0.000000D+00  0.000000D+00  0.000000D+00
      4   0.000000D+00  0.000000D+00  0.000000D+00  0.000000D+00  0.000000D+00
      5   0.000000D+00  0.000000D+00  0.000000D+00  0.000000D+00  0.000000D+00
      6   0.000000D+00  0.000000D+00  0.000000D+00  0.000000D+00  0.000000D+00
      7   0.000000D+00  0.000000D+00  0.000000D+00  0.000000D+00  0.000000D+00
      8   0.000000D+00  0.000000D+00  0.000000D+00  0.000000D+00  0.000000D+00
      9   0.000000D+00  0.000000D+00  0.000000D+00  0.000000D+00  0.000000D+00
     10   0.000000D+00  0.000000D+00  0.000000D+00  0.000000D+00  0.000000D+00
                 6             7             8             9            10 
      1   0.000000D+00  0.000000D+00  0.185493D-03  0.171040D-02  0.125229D-02
      2   0.000000D+00  0.000000D+00 -0.602789D-04 -0.983284D-03 -0.549358D-03
      3   0.000000D+00  0.000000D+00  0.959673D-04 -0.164060D-03 -0.154912D-04
      4   0.000000D+00  0.000000D+00 -0.138962D-03  0.307054D-04 -0.521005D-05
      5   0.000000D+00  0.000000D+00  0.223877D-04  0.669194D-03  0.293977D-03
      6   0.000000D+00  0.000000D+00 -0.524785D-04  0.231565D-03  0.473374D-04
      7   0.000000D+00  0.000000D+00  0.247644D-05 -0.233976D-03 -0.111779D-03
      8   0.000000D+00  0.000000D+00  0.783649D-04 -0.126697D-03 -0.390947D-04
      9   0.000000D+00  0.000000D+00 -0.436674D-04 -0.138945D-04  0.407634D-05
     10   0.000000D+00  0.000000D+00  0.504373D-04 -0.283267D-03 -0.116633D-03
                11            12 
      1   0.311548D-02  0.479971D-02
      2  -0.127865D-02 -0.230959D-02
      3  -0.111194D-02 -0.183030D-04
      4  -0.200361D-03  0.168860D-02
      5   0.460893D-03  0.103165D-02
      6   0.824817D-03  0.208934D-03
      7   0.279607D-03 -0.903684D-03
      8   0.141443D-04 -0.150081D-02
      9   0.212460D-04 -0.139561D-03
     10  -0.502543D-03  0.284553D-03
 EMM          1
                 1             2             3             4             5 
      1   0.000000D+00  0.000000D+00  0.000000D+00  0.000000D+00  0.000000D+00
      2   0.000000D+00  0.000000D+00  0.000000D+00  0.000000D+00  0.000000D+00
      3   0.000000D+00  0.000000D+00  0.000000D+00  0.000000D+00  0.000000D+00
                 6             7             8             9            10 
      1  -0.207709D-02 -0.111743D-02 -0.150697D-03 -0.237877D-02 -0.686698D-03
      2  -0.288046D-03  0.945102D-03  0.239918D-03 -0.379307D-03 -0.193640D-04
      3  -0.313463D-04 -0.145257D-02 -0.347405D-03  0.510683D-04 -0.651256D-05
                11            12 
      1  -0.159807D-02 -0.287543D-02
      2  -0.138971D-02 -0.192775D-04
      3  -0.250518D-03  0.210044D-02
 EMM          2
                 1             2             3             4             5 
      1   0.000000D+00  0.000000D+00  0.000000D+00  0.000000D+00  0.000000D+00
      2   0.000000D+00  0.000000D+00  0.000000D+00  0.000000D+00  0.000000D+00
      3   0.000000D+00  0.000000D+00  0.000000D+00  0.000000D+00  0.000000D+00
                 6             7             8             9            10 
      1   0.000000D+00  0.000000D+00 -0.150697D-03 -0.237877D-02 -0.686698D-03
      2   0.000000D+00  0.000000D+00  0.239918D-03 -0.379307D-03 -0.193640D-04
      3   0.000000D+00  0.000000D+00 -0.347405D-03  0.510683D-04 -0.651256D-05
                11            12 
      1  -0.159807D-02 -0.287543D-02
      2  -0.138971D-02 -0.192775D-04
      3  -0.250518D-03  0.210044D-02
 VQM 
                 1             2             3             4             5 
      1   0.000000D+00  0.000000D+00  0.000000D+00  0.000000D+00  0.000000D+00
      2   0.000000D+00  0.000000D+00  0.000000D+00  0.000000D+00  0.000000D+00
      3   0.000000D+00  0.000000D+00  0.000000D+00  0.000000D+00  0.000000D+00
      4   0.000000D+00  0.000000D+00  0.000000D+00  0.000000D+00  0.000000D+00
      5   0.000000D+00  0.000000D+00  0.000000D+00  0.000000D+00  0.000000D+00
      6   0.000000D+00  0.000000D+00  0.000000D+00  0.000000D+00  0.000000D+00
      7   0.000000D+00  0.000000D+00  0.000000D+00  0.000000D+00  0.000000D+00
      8   0.000000D+00  0.000000D+00  0.000000D+00  0.000000D+00  0.000000D+00
      9   0.000000D+00  0.000000D+00  0.000000D+00  0.000000D+00  0.000000D+00
     10   0.000000D+00  0.000000D+00  0.000000D+00  0.000000D+00  0.000000D+00
                 6             7             8             9            10 
      1   0.000000D+00  0.000000D+00  0.000000D+00  0.000000D+00  0.000000D+00
      2   0.000000D+00  0.000000D+00  0.000000D+00  0.000000D+00  0.000000D+00
      3   0.000000D+00  0.000000D+00  0.000000D+00  0.000000D+00  0.000000D+00
      4   0.000000D+00  0.000000D+00  0.000000D+00  0.000000D+00  0.000000D+00
      5   0.000000D+00  0.000000D+00  0.000000D+00  0.000000D+00  0.000000D+00
      6   0.000000D+00  0.000000D+00  0.000000D+00  0.000000D+00  0.000000D+00
      7   0.000000D+00  0.000000D+00  0.000000D+00  0.000000D+00  0.000000D+00
      8   0.000000D+00  0.000000D+00  0.000000D+00  0.000000D+00  0.000000D+00
      9   0.000000D+00  0.000000D+00  0.000000D+00  0.000000D+00  0.000000D+00
     10   0.000000D+00  0.000000D+00  0.000000D+00  0.000000D+00  0.000000D+00
                11            12 
      1   0.000000D+00  0.000000D+00
      2   0.000000D+00  0.000000D+00
      3   0.000000D+00  0.000000D+00
      4   0.000000D+00  0.000000D+00
      5   0.000000D+00  0.000000D+00
      6   0.000000D+00  0.000000D+00
      7   0.000000D+00  0.000000D+00
      8   0.000000D+00  0.000000D+00
      9   0.000000D+00  0.000000D+00
     10   0.000000D+00  0.000000D+00
 EQM 
                 1             2             3             4             5 
      1   0.000000D+00  0.000000D+00  0.000000D+00  0.000000D+00  0.000000D+00
      2   0.000000D+00  0.000000D+00  0.000000D+00  0.000000D+00  0.000000D+00
      3   0.000000D+00  0.000000D+00  0.000000D+00  0.000000D+00  0.000000D+00
                 6             7             8             9            10 
      1   0.000000D+00  0.000000D+00  0.000000D+00  0.000000D+00  0.000000D+00
      2   0.000000D+00  0.000000D+00  0.000000D+00  0.000000D+00  0.000000D+00
      3   0.000000D+00  0.000000D+00  0.000000D+00  0.000000D+00  0.000000D+00
                11            12 
      1   0.000000D+00  0.000000D+00
      2   0.000000D+00  0.000000D+00
      3   0.000000D+00  0.000000D+00
 RHS for polarization          1
                 1             2             3             4             5 
      1   0.000000D+00  0.000000D+00  0.000000D+00  0.000000D+00  0.000000D+00
      2   0.000000D+00  0.000000D+00  0.000000D+00  0.000000D+00  0.000000D+00
      3   0.000000D+00  0.000000D+00  0.000000D+00  0.000000D+00  0.000000D+00
                 6             7             8             9            10 
      1  -0.207709D-02 -0.111743D-02 -0.150697D-03 -0.237877D-02 -0.686698D-03
      2  -0.288046D-03  0.945102D-03  0.239918D-03 -0.379307D-03 -0.193640D-04
      3  -0.313463D-04 -0.145257D-02 -0.347405D-03  0.510683D-04 -0.651256D-05
                11            12 
      1  -0.159807D-02 -0.287543D-02
      2  -0.138971D-02 -0.192775D-04
      3  -0.250518D-03  0.210044D-02
 RHS for polarization          2
                 1             2             3             4             5 
      1   0.000000D+00  0.000000D+00  0.000000D+00  0.000000D+00  0.000000D+00
      2   0.000000D+00  0.000000D+00  0.000000D+00  0.000000D+00  0.000000D+00
      3   0.000000D+00  0.000000D+00  0.000000D+00  0.000000D+00  0.000000D+00
                 6             7             8             9            10 
      1   0.000000D+00  0.000000D+00 -0.150697D-03 -0.237877D-02 -0.686698D-03
      2   0.000000D+00  0.000000D+00  0.239918D-03 -0.379307D-03 -0.193640D-04
      3   0.000000D+00  0.000000D+00 -0.347405D-03  0.510683D-04 -0.651256D-05
                11            12 
      1  -0.159807D-02 -0.287543D-02
      2  -0.138971D-02 -0.192775D-04
      3  -0.250518D-03  0.210044D-02
 K matrix: 
                 1             2             3             4             5 
      1   0.111083D+00  0.000000D+00  0.000000D+00  0.521431D-01  0.547690D-02
      2   0.000000D+00  0.111083D+00  0.000000D+00  0.547690D-02  0.937603D-02
      3   0.000000D+00  0.000000D+00  0.111083D+00 -0.413542D-03  0.328131D-02
      4   0.521431D-01  0.547690D-02 -0.413542D-03  0.298759D+00  0.000000D+00
      5   0.547690D-02  0.937603D-02  0.328131D-02  0.000000D+00  0.298759D+00
      6  -0.413542D-03  0.328131D-02  0.525856D-01  0.000000D+00  0.000000D+00
      7   0.528287D-01 -0.252374D-03 -0.585951D-03  0.258164D-01  0.429023D-02
      8  -0.252374D-03  0.458935D-01 -0.161230D-01  0.429023D-02 -0.276993D-01
      9  -0.585951D-03 -0.161230D-01  0.154042D-01  0.261322D-02 -0.328051D-01
     10   0.265125D-01 -0.127999D-01  0.176777D-01  0.145389D-01 -0.250036D-01
     11  -0.127999D-01  0.465954D-01  0.860025D-02 -0.250036D-01 -0.264938D-01
     12   0.176777D-01  0.860025D-02  0.409449D-01  0.108520D-01  0.229421D-01
     13   0.139353D-02  0.640942D-02 -0.136557D-01 -0.423317D-02  0.183147D-01
     14   0.640942D-02  0.255690D-01  0.339645D-02  0.183147D-01 -0.323859D-02
     15  -0.136557D-01  0.339645D-02  0.199268D-01 -0.100951D-01  0.982472D-02
     16   0.751314D-03  0.780200D-02 -0.123725D-01  0.155266D-02  0.468160D-02
     17   0.780200D-02  0.474760D-02  0.960313D-02  0.468160D-02 -0.187488D-02
     18  -0.123725D-01  0.960313D-02 -0.442547D-02 -0.383787D-02  0.549184D-02
     19  -0.181699D-01 -0.227390D-02 -0.220423D-02 -0.118809D-01  0.648928D-02
     20  -0.227390D-02  0.962641D-02 -0.179127D-03  0.648928D-02  0.494353D-02
     21  -0.220423D-02 -0.179127D-03  0.963756D-02 -0.202128D-02  0.689025D-03
     22  -0.722505D-02  0.587879D-04 -0.223828D-02 -0.472664D-02  0.243967D-02
     23   0.587879D-04  0.383877D-02  0.118928D-04  0.243967D-02  0.215681D-02
     24  -0.223828D-02  0.118928D-04  0.338628D-02 -0.166976D-02  0.531781D-03
     25  -0.730297D-02 -0.565175D-02  0.497482D-02 -0.112037D-01 -0.972848D-04
     26  -0.565175D-02  0.341747D-02  0.213820D-02 -0.972848D-04  0.656380D-02
     27   0.497482D-02  0.213820D-02  0.396452D-02  0.584106D-02  0.319813D-04
     28  -0.335040D-02 -0.187020D-02  0.198833D-02 -0.426020D-02 -0.186492D-03
     29  -0.187020D-02  0.171531D-02  0.654523D-03 -0.186492D-03  0.246202D-02
     30   0.198833D-02  0.654523D-03  0.163508D-02  0.212150D-02  0.588106D-04
     31  -0.241788D-02 -0.718727D-02  0.239725D-02 -0.118440D-01 -0.890156D-02
     32  -0.718727D-02 -0.186416D-02  0.230668D-02 -0.890156D-02  0.470853D-02
     33   0.239725D-02  0.230668D-02  0.428221D-02  0.544462D-02  0.237218D-02
     34  -0.374526D-02 -0.377548D-02  0.983380D-02 -0.544741D-02  0.230992D-02
     35  -0.377548D-02  0.570386D-02  0.344653D-02  0.230992D-02  0.668535D-02
     36   0.983380D-02  0.344653D-02 -0.194993D-02  0.102388D-01 -0.188338D-02
                 6             7             8             9            10 
      1  -0.413542D-03  0.528287D-01 -0.252374D-03 -0.585951D-03  0.265125D-01
      2   0.328131D-02 -0.252374D-03  0.458935D-01 -0.161230D-01 -0.127999D-01
      3   0.525856D-01 -0.585951D-03 -0.161230D-01  0.154042D-01  0.176777D-01
      4   0.000000D+00  0.258164D-01  0.429023D-02  0.261322D-02  0.145389D-01
      5   0.000000D+00  0.429023D-02 -0.276993D-01 -0.328051D-01 -0.250036D-01
      6   0.298759D+00  0.261322D-02 -0.328051D-01  0.617623D-02  0.108520D-01
      7   0.261322D-02  0.298759D+00  0.000000D+00  0.000000D+00  0.101425D-01
      8  -0.328051D-01  0.000000D+00  0.298759D+00  0.000000D+00  0.448269D-03
      9   0.617623D-02  0.000000D+00  0.000000D+00  0.298759D+00  0.306937D-01
     10   0.108520D-01  0.101425D-01  0.448269D-03  0.306937D-01  0.298759D+00
     11   0.229421D-01  0.448269D-03  0.262834D-01 -0.851776D-03  0.000000D+00
     12   0.164087D-01  0.306937D-01 -0.851776D-03 -0.320266D-01  0.000000D+00
     13  -0.100951D-01 -0.129239D-02 -0.128498D-02 -0.204692D-01 -0.273968D-01
     14   0.982472D-02 -0.128498D-02  0.145839D-01 -0.164600D-02 -0.163654D-02
     15   0.917018D-02 -0.204692D-01 -0.164600D-02 -0.115329D-01 -0.251550D-02
     16  -0.383787D-02  0.206859D-02  0.139768D-02 -0.603420D-02 -0.112873D-01
     17   0.549184D-02  0.139768D-02  0.453242D-02  0.272498D-02  0.595068D-02
     18   0.322220D-03 -0.603420D-02  0.272498D-02 -0.660100D-02 -0.102143D-01
     19  -0.202128D-02 -0.870255D-02 -0.393284D-02 -0.745313D-02 -0.724067D-02
     20   0.689025D-03 -0.393284D-02  0.565637D-02 -0.190764D-02 -0.205549D-02
     21   0.694102D-02 -0.745313D-02 -0.190764D-02  0.304781D-02  0.125722D-02
     22  -0.166976D-02 -0.384334D-02 -0.829017D-03 -0.334707D-02 -0.402056D-02
     23   0.531781D-03 -0.829017D-03  0.271138D-02 -0.416763D-03 -0.571202D-03
     24   0.256983D-02 -0.334707D-02 -0.416763D-03  0.113196D-02 -0.153342D-03
     25   0.584106D-02 -0.676343D-02 -0.734723D-02 -0.186639D-03 -0.262183D-02
     26   0.319813D-04 -0.734723D-02  0.119528D-02 -0.111170D-03 -0.218281D-02
     27   0.464415D-02 -0.186639D-03 -0.111170D-03  0.556876D-02  0.221865D-02
     28   0.212150D-02 -0.353697D-02 -0.264442D-02  0.418867D-03 -0.150376D-02
     29   0.588106D-04 -0.264442D-02  0.119188D-02  0.187366D-03 -0.951400D-03
     30   0.179817D-02  0.418867D-03  0.187366D-03  0.234509D-02  0.108916D-02
     31   0.544462D-02 -0.109616D-02 -0.583727D-02 -0.714981D-03 -0.130883D-02
     32   0.237218D-02 -0.583727D-02 -0.276771D-02 -0.824643D-03 -0.286372D-02
     33   0.713593D-02 -0.714981D-03 -0.824643D-03  0.386386D-02  0.144754D-02
     34   0.102388D-01 -0.106961D-01 -0.119260D-01  0.848812D-02 -0.160264D-02
     35  -0.188338D-02 -0.119260D-01  0.368895D-02  0.479317D-02 -0.164958D-02
     36  -0.123792D-02  0.848812D-02  0.479317D-02  0.701201D-02  0.354689D-02
                11            12            13            14            15 
      1  -0.127999D-01  0.176777D-01  0.139353D-02  0.640942D-02 -0.136557D-01
      2   0.465954D-01  0.860025D-02  0.640942D-02  0.255690D-01  0.339645D-02
      3   0.860025D-02  0.409449D-01 -0.136557D-01  0.339645D-02  0.199268D-01
      4  -0.250036D-01  0.108520D-01 -0.423317D-02  0.183147D-01 -0.100951D-01
      5  -0.264938D-01  0.229421D-01  0.183147D-01 -0.323859D-02  0.982472D-02
      6   0.229421D-01  0.164087D-01 -0.100951D-01  0.982472D-02  0.917018D-02
      7   0.448269D-03  0.306937D-01 -0.129239D-02 -0.128498D-02 -0.204692D-01
      8   0.262834D-01 -0.851776D-03 -0.128498D-02  0.145839D-01 -0.164600D-02
      9  -0.851776D-03 -0.320266D-01 -0.204692D-01 -0.164600D-02 -0.115329D-01
     10   0.000000D+00  0.000000D+00 -0.273968D-01 -0.163654D-02 -0.251550D-02
     11   0.298759D+00  0.000000D+00 -0.163654D-02  0.146199D-01 -0.978303D-04
     12   0.000000D+00  0.298759D+00 -0.251550D-02 -0.978303D-04  0.145332D-01
     13  -0.163654D-02 -0.251550D-02  0.111083D+00  0.000000D+00  0.000000D+00
     14   0.146199D-01 -0.978303D-04  0.000000D+00  0.111083D+00  0.000000D+00
     15  -0.978303D-04  0.145332D-01  0.000000D+00  0.000000D+00  0.111083D+00
     16   0.595068D-02 -0.102143D-01  0.400195D-01  0.765876D-03 -0.102709D-02
     17   0.734243D-02  0.298415D-02  0.765876D-03  0.274839D-01  0.168736D-01
     18   0.298415D-02  0.395867D-02 -0.102709D-02  0.168736D-01  0.174376D-01
     19  -0.205549D-02  0.125722D-02  0.839902D-02 -0.113842D-01  0.108612D-01
     20   0.350145D-02  0.232350D-03 -0.113842D-01  0.279332D-01  0.499235D-02
     21   0.232350D-03  0.373922D-02  0.108612D-01  0.499235D-02  0.284030D-01
     22  -0.571202D-03 -0.153342D-03 -0.298656D-01 -0.727172D-02  0.552641D-03
     23   0.198530D-02 -0.144544D-04 -0.727172D-02  0.163387D-01  0.849220D-04
     24  -0.144544D-04  0.203526D-02  0.552641D-03  0.849220D-04  0.174496D-01
     25  -0.218281D-02  0.221865D-02  0.279820D-02 -0.741663D-02  0.865265D-02
     26   0.132695D-02  0.984793D-03 -0.741663D-02  0.770763D-03  0.991576D-02
     27   0.984793D-03  0.129488D-02  0.865265D-02  0.991576D-02 -0.229820D-02
     28  -0.951400D-03  0.108916D-02 -0.150391D-02 -0.355523D-02  0.459799D-02
     29   0.804916D-03  0.390995D-03 -0.355523D-02  0.154067D-02  0.303298D-02
     30   0.390995D-03  0.698849D-03  0.459799D-02  0.303298D-02 -0.367565D-04
     31  -0.286372D-02  0.144754D-02  0.445317D-02 -0.440032D-02  0.253618D-02
     32  -0.229465D-03  0.120023D-02 -0.440032D-02 -0.635813D-02  0.713299D-02
     33   0.120023D-02  0.153830D-02  0.253618D-02  0.713299D-02  0.190655D-02
     34  -0.164958D-02  0.354689D-02  0.572165D-02 -0.182438D-02  0.447526D-02
     35   0.197008D-02  0.138717D-02 -0.182438D-02  0.413096D-02  0.683306D-02
     36   0.138717D-02 -0.367431D-03  0.447526D-02  0.683306D-02 -0.984524D-02
                16            17            18            19            20 
      1   0.751314D-03  0.780200D-02 -0.123725D-01 -0.181699D-01 -0.227390D-02
      2   0.780200D-02  0.474760D-02  0.960313D-02 -0.227390D-02  0.962641D-02
      3  -0.123725D-01  0.960313D-02 -0.442547D-02 -0.220423D-02 -0.179127D-03
      4   0.155266D-02  0.468160D-02 -0.383787D-02 -0.118809D-01  0.648928D-02
      5   0.468160D-02 -0.187488D-02  0.549184D-02  0.648928D-02  0.494353D-02
      6  -0.383787D-02  0.549184D-02  0.322220D-03 -0.202128D-02  0.689025D-03
      7   0.206859D-02  0.139768D-02 -0.603420D-02 -0.870255D-02 -0.393284D-02
      8   0.139768D-02  0.453242D-02  0.272498D-02 -0.393284D-02  0.565637D-02
      9  -0.603420D-02  0.272498D-02 -0.660100D-02 -0.745313D-02 -0.190764D-02
     10  -0.112873D-01  0.595068D-02 -0.102143D-01 -0.724067D-02 -0.205549D-02
     11   0.595068D-02  0.734243D-02  0.298415D-02 -0.205549D-02  0.350145D-02
     12  -0.102143D-01  0.298415D-02  0.395867D-02  0.125722D-02  0.232350D-03
     13   0.400195D-01  0.765876D-03 -0.102709D-02  0.839902D-02 -0.113842D-01
     14   0.765876D-03  0.274839D-01  0.168736D-01 -0.113842D-01  0.279332D-01
     15  -0.102709D-02  0.168736D-01  0.174376D-01  0.108612D-01  0.499235D-02
     16   0.177043D+00  0.000000D+00  0.000000D+00  0.407446D-02 -0.105974D-01
     17   0.000000D+00  0.177043D+00  0.000000D+00 -0.105974D-01  0.131861D-02
     18   0.000000D+00  0.000000D+00  0.177043D+00  0.124893D-01  0.142184D-01
     19   0.407446D-02 -0.105974D-01  0.124893D-01  0.138103D+00  0.000000D+00
     20  -0.105974D-01  0.131861D-02  0.142184D-01  0.000000D+00  0.138103D+00
     21   0.124893D-01  0.142184D-01 -0.337363D-02  0.000000D+00  0.000000D+00
     22  -0.984193D-02 -0.106375D-01  0.102521D-01  0.276109D-01  0.837770D-02
     23  -0.106375D-01  0.474482D-02  0.540125D-02  0.837770D-02  0.588465D-01
     24   0.102521D-01  0.540125D-02  0.514351D-02 -0.184449D-01  0.463474D-02
     25   0.212713D-02 -0.189130D-02  0.231789D-02  0.299899D-01 -0.158989D-02
     26  -0.189130D-02 -0.211905D-03  0.415855D-02 -0.158989D-02  0.157122D-01
     27   0.231789D-02  0.415855D-02 -0.191522D-02  0.205269D-02  0.186595D-01
     28   0.345102D-03 -0.149816D-02  0.196077D-02  0.213527D-02 -0.118734D-01
     29  -0.149816D-02  0.359017D-03  0.195169D-02 -0.118734D-01  0.577097D-02
     30   0.196077D-02  0.195169D-02 -0.704119D-03  0.175009D-01  0.150254D-01
     31   0.202065D-02 -0.109691D-02  0.826168D-03  0.149939D-01  0.556703D-02
     32  -0.109691D-02 -0.192571D-02  0.318650D-02  0.556703D-02 -0.209974D-01
     33   0.826168D-03  0.318650D-02 -0.949454D-04 -0.262324D-02  0.173559D-01
     34   0.225605D-02 -0.513700D-03  0.102259D-02  0.133652D-01  0.238825D-02
     35  -0.513700D-03  0.100181D-02  0.286211D-02  0.238825D-02  0.131826D-01
     36   0.102259D-02  0.286211D-02 -0.325786D-02 -0.966631D-02  0.100430D-01
                21            22            23            24            25 
      1  -0.220423D-02 -0.722505D-02  0.587879D-04 -0.223828D-02 -0.730297D-02
      2  -0.179127D-03  0.587879D-04  0.383877D-02  0.118928D-04 -0.565175D-02
      3   0.963756D-02 -0.223828D-02  0.118928D-04  0.338628D-02  0.497482D-02
      4  -0.202128D-02 -0.472664D-02  0.243967D-02 -0.166976D-02 -0.112037D-01
      5   0.689025D-03  0.243967D-02  0.215681D-02  0.531781D-03 -0.972848D-04
      6   0.694102D-02 -0.166976D-02  0.531781D-03  0.256983D-02  0.584106D-02
      7  -0.745313D-02 -0.384334D-02 -0.829017D-03 -0.334707D-02 -0.676343D-02
      8  -0.190764D-02 -0.829017D-03  0.271138D-02 -0.416763D-03 -0.734723D-02
      9   0.304781D-02 -0.334707D-02 -0.416763D-03  0.113196D-02 -0.186639D-03
     10   0.125722D-02 -0.402056D-02 -0.571202D-03 -0.153342D-03 -0.262183D-02
     11   0.232350D-03 -0.571202D-03  0.198530D-02 -0.144544D-04 -0.218281D-02
     12   0.373922D-02 -0.153342D-03 -0.144544D-04  0.203526D-02  0.221865D-02
     13   0.108612D-01 -0.298656D-01 -0.727172D-02  0.552641D-03  0.279820D-02
     14   0.499235D-02 -0.727172D-02  0.163387D-01  0.849220D-04 -0.741663D-02
     15   0.284030D-01  0.552641D-03  0.849220D-04  0.174496D-01  0.865265D-02
     16   0.124893D-01 -0.984193D-02 -0.106375D-01  0.102521D-01  0.212713D-02
     17   0.142184D-01 -0.106375D-01  0.474482D-02  0.540125D-02 -0.189130D-02
     18  -0.337363D-02  0.102521D-01  0.540125D-02  0.514351D-02  0.231789D-02
     19   0.000000D+00  0.276109D-01  0.837770D-02 -0.184449D-01  0.299899D-01
     20   0.000000D+00  0.837770D-02  0.588465D-01  0.463474D-02 -0.158989D-02
     21   0.138103D+00 -0.184449D-01  0.463474D-02  0.507474D-01  0.205269D-02
     22  -0.184449D-01  0.298759D+00  0.000000D+00  0.000000D+00  0.968742D-02
     23   0.463474D-02  0.000000D+00  0.298759D+00  0.000000D+00  0.832044D-02
     24   0.507474D-01  0.000000D+00  0.000000D+00  0.298759D+00 -0.122175D-01
     25   0.205269D-02  0.968742D-02  0.832044D-02 -0.122175D-01  0.111083D+00
     26   0.186595D-01  0.832044D-02  0.327291D-02  0.178032D-01  0.000000D+00
     27   0.607380D-02 -0.122175D-01  0.178032D-01 -0.107444D-01  0.000000D+00
     28   0.175009D-01  0.117563D-01 -0.241253D-02  0.387253D-02  0.118781D-01
     29   0.150254D-01 -0.241253D-02  0.215513D-02  0.163298D-01 -0.346500D-02
     30  -0.618204D-02  0.387253D-02  0.163298D-01 -0.138839D-01  0.115032D-01
     31  -0.262324D-02  0.339963D-02  0.674350D-02 -0.438119D-02  0.473175D-01
     32   0.173559D-01  0.674350D-02 -0.526839D-02  0.802377D-02  0.140921D-01
     33   0.765709D-02 -0.438119D-02  0.802377D-02  0.186878D-02  0.384110D-02
     34  -0.966631D-02  0.220090D-02  0.205790D-02 -0.716974D-02  0.405690D-01
     35   0.100430D-01  0.205790D-02  0.498437D-02  0.380660D-02 -0.859769D-02
     36  -0.249847D-01 -0.716974D-02  0.380660D-02 -0.718527D-02 -0.178950D-01
                26            27            28            29            30 
      1  -0.565175D-02  0.497482D-02 -0.335040D-02 -0.187020D-02  0.198833D-02
      2   0.341747D-02  0.213820D-02 -0.187020D-02  0.171531D-02  0.654523D-03
      3   0.213820D-02  0.396452D-02  0.198833D-02  0.654523D-03  0.163508D-02
      4  -0.972848D-04  0.584106D-02 -0.426020D-02 -0.186492D-03  0.212150D-02
      5   0.656380D-02  0.319813D-04 -0.186492D-03  0.246202D-02  0.588106D-04
      6   0.319813D-04  0.464415D-02  0.212150D-02  0.588106D-04  0.179817D-02
      7  -0.734723D-02 -0.186639D-03 -0.353697D-02 -0.264442D-02  0.418867D-03
      8   0.119528D-02 -0.111170D-03 -0.264442D-02  0.119188D-02  0.187366D-03
      9  -0.111170D-03  0.556876D-02  0.418867D-03  0.187366D-03  0.234509D-02
     10  -0.218281D-02  0.221865D-02 -0.150376D-02 -0.951400D-03  0.108916D-02
     11   0.132695D-02  0.984793D-03 -0.951400D-03  0.804916D-03  0.390995D-03
     12   0.984793D-03  0.129488D-02  0.108916D-02  0.390995D-03  0.698849D-03
     13  -0.741663D-02  0.865265D-02 -0.150391D-02 -0.355523D-02  0.459799D-02
     14   0.770763D-03  0.991576D-02 -0.355523D-02  0.154067D-02  0.303298D-02
     15   0.991576D-02 -0.229820D-02  0.459799D-02  0.303298D-02 -0.367565D-04
     16  -0.189130D-02  0.231789D-02  0.345102D-03 -0.149816D-02  0.196077D-02
     17  -0.211905D-03  0.415855D-02 -0.149816D-02  0.359017D-03  0.195169D-02
     18   0.415855D-02 -0.191522D-02  0.196077D-02  0.195169D-02 -0.704119D-03
     19  -0.158989D-02  0.205269D-02  0.213527D-02 -0.118734D-01  0.175009D-01
     20   0.157122D-01  0.186595D-01 -0.118734D-01  0.577097D-02  0.150254D-01
     21   0.186595D-01  0.607380D-02  0.175009D-01  0.150254D-01 -0.618204D-02
     22   0.832044D-02 -0.122175D-01  0.117563D-01 -0.241253D-02  0.387253D-02
     23   0.327291D-02  0.178032D-01 -0.241253D-02  0.215513D-02  0.163298D-01
     24   0.178032D-01 -0.107444D-01  0.387253D-02  0.163298D-01 -0.138839D-01
     25   0.000000D+00  0.000000D+00  0.118781D-01 -0.346500D-02  0.115032D-01
     26   0.111083D+00  0.000000D+00 -0.346500D-02  0.525092D-01  0.973953D-03
     27   0.000000D+00  0.111083D+00  0.115032D-01  0.973953D-03  0.495692D-01
     28  -0.346500D-02  0.115032D-01  0.298759D+00  0.000000D+00  0.000000D+00
     29   0.525092D-01  0.973953D-03  0.000000D+00  0.298759D+00  0.000000D+00
     30   0.973953D-03  0.495692D-01  0.000000D+00  0.000000D+00  0.298759D+00
     31   0.140921D-01  0.384110D-02 -0.215836D-01  0.297825D-01  0.186836D-01
     32   0.164715D-01 -0.989831D-02  0.297825D-01  0.715363D-02 -0.117304D-01
     33  -0.989831D-02  0.500881D-01  0.186836D-01 -0.117304D-01  0.184935D-01
     34  -0.859769D-02 -0.178950D-01 -0.352503D-01 -0.185597D-01 -0.205330D-01
     35   0.467516D-01 -0.125824D-01 -0.185597D-01  0.203244D-01 -0.622662D-02
     36  -0.125824D-01  0.266083D-01 -0.205330D-01 -0.622662D-02  0.190639D-01
                31            32            33            34            35 
      1  -0.241788D-02 -0.718727D-02  0.239725D-02 -0.374526D-02 -0.377548D-02
      2  -0.718727D-02 -0.186416D-02  0.230668D-02 -0.377548D-02  0.570386D-02
      3   0.239725D-02  0.230668D-02  0.428221D-02  0.983380D-02  0.344653D-02
      4  -0.118440D-01 -0.890156D-02  0.544462D-02 -0.544741D-02  0.230992D-02
      5  -0.890156D-02  0.470853D-02  0.237218D-02  0.230992D-02  0.668535D-02
      6   0.544462D-02  0.237218D-02  0.713593D-02  0.102388D-01 -0.188338D-02
      7  -0.109616D-02 -0.583727D-02 -0.714981D-03 -0.106961D-01 -0.119260D-01
      8  -0.583727D-02 -0.276771D-02 -0.824643D-03 -0.119260D-01  0.368895D-02
      9  -0.714981D-03 -0.824643D-03  0.386386D-02  0.848812D-02  0.479317D-02
     10  -0.130883D-02 -0.286372D-02  0.144754D-02 -0.160264D-02 -0.164958D-02
     11  -0.286372D-02 -0.229465D-03  0.120023D-02 -0.164958D-02  0.197008D-02
     12   0.144754D-02  0.120023D-02  0.153830D-02  0.354689D-02  0.138717D-02
     13   0.445317D-02 -0.440032D-02  0.253618D-02  0.572165D-02 -0.182438D-02
     14  -0.440032D-02 -0.635813D-02  0.713299D-02 -0.182438D-02  0.413096D-02
     15   0.253618D-02  0.713299D-02  0.190655D-02  0.447526D-02  0.683306D-02
     16   0.202065D-02 -0.109691D-02  0.826168D-03  0.225605D-02 -0.513700D-03
     17  -0.109691D-02 -0.192571D-02  0.318650D-02 -0.513700D-03  0.100181D-02
     18   0.826168D-03  0.318650D-02 -0.949454D-04  0.102259D-02  0.286211D-02
     19   0.149939D-01  0.556703D-02 -0.262324D-02  0.133652D-01  0.238825D-02
     20   0.556703D-02 -0.209974D-01  0.173559D-01  0.238825D-02  0.131826D-01
     21  -0.262324D-02  0.173559D-01  0.765709D-02 -0.966631D-02  0.100430D-01
     22   0.339963D-02  0.674350D-02 -0.438119D-02  0.220090D-02  0.205790D-02
     23   0.674350D-02 -0.526839D-02  0.802377D-02  0.205790D-02  0.498437D-02
     24  -0.438119D-02  0.802377D-02  0.186878D-02 -0.716974D-02  0.380660D-02
     25   0.473175D-01  0.140921D-01  0.384110D-02  0.405690D-01 -0.859769D-02
     26   0.140921D-01  0.164715D-01 -0.989831D-02 -0.859769D-02  0.467516D-01
     27   0.384110D-02 -0.989831D-02  0.500881D-01 -0.178950D-01 -0.125824D-01
     28  -0.215836D-01  0.297825D-01  0.186836D-01 -0.352503D-01 -0.185597D-01
     29   0.297825D-01  0.715363D-02 -0.117304D-01 -0.185597D-01  0.203244D-01
     30   0.186836D-01 -0.117304D-01  0.184935D-01 -0.205330D-01 -0.622662D-02
     31   0.298759D+00  0.000000D+00  0.000000D+00  0.247826D-01 -0.602152D-02
     32   0.000000D+00  0.298759D+00  0.000000D+00 -0.602152D-02 -0.185056D-01
     33   0.000000D+00  0.000000D+00  0.298759D+00 -0.479739D-02 -0.351430D-01
     34   0.247826D-01 -0.602152D-02 -0.479739D-02  0.298759D+00  0.000000D+00
     35  -0.602152D-02 -0.185056D-01 -0.351430D-01  0.000000D+00  0.298759D+00
     36  -0.479739D-02 -0.351430D-01 -0.239404D-02  0.000000D+00  0.000000D+00
                36 
      1   0.983380D-02
      2   0.344653D-02
      3  -0.194993D-02
      4   0.102388D-01
      5  -0.188338D-02
      6  -0.123792D-02
      7   0.848812D-02
      8   0.479317D-02
      9   0.701201D-02
     10   0.354689D-02
     11   0.138717D-02
     12  -0.367431D-03
     13   0.447526D-02
     14   0.683306D-02
     15  -0.984524D-02
     16   0.102259D-02
     17   0.286211D-02
     18  -0.325786D-02
     19  -0.966631D-02
     20   0.100430D-01
     21  -0.249847D-01
     22  -0.716974D-02
     23   0.380660D-02
     24  -0.718527D-02
     25  -0.178950D-01
     26  -0.125824D-01
     27   0.266083D-01
     28  -0.205330D-01
     29  -0.622662D-02
     30   0.190639D-01
     31  -0.479739D-02
     32  -0.351430D-01
     33  -0.239404D-02
     34   0.000000D+00
     35   0.000000D+00
     36   0.298759D+00
 Dipoles 
                 1             2             3             4             5 
      1  -0.141008D-02 -0.601070D-03 -0.477770D-03 -0.538681D-04  0.715598D-02
      2  -0.755778D-03 -0.264297D-03 -0.626912D-03  0.981695D-04 -0.239878D-02
      3   0.102407D-02  0.707161D-03  0.489120D-03 -0.794224D-04  0.474206D-02
                 6             7             8             9            10 
      1  -0.116569D-01 -0.419916D-02  0.104035D-03 -0.157231D-01 -0.142940D-02
      2  -0.150533D-02  0.680335D-02  0.292333D-03 -0.239093D-02  0.264024D-03
      3  -0.382189D-03 -0.932280D-02 -0.462003D-03 -0.233542D-02 -0.149152D-03
                11            12 
      1  -0.230535D-02 -0.819461D-02
      2  -0.242946D-02 -0.631389D-03
      3  -0.574277D-03  0.487893D-02
 P Dipoles 
                 1             2             3             4             5 
      1  -0.649035D-03 -0.674347D-03 -0.618356D-03 -0.226162D-03  0.199824D-03
      2  -0.908775D-03 -0.691794D-04 -0.517985D-03 -0.110457D-03 -0.107444D-02
      3   0.139803D-02  0.488752D-03  0.221618D-03  0.154524D-03  0.164990D-02
                 6             7             8             9            10 
      1   0.363170D-03  0.477272D-02  0.124349D-03 -0.182657D-01 -0.212393D-02
      2  -0.154734D-03 -0.675136D-03  0.153180D-02 -0.259372D-02  0.344665D-03
      3   0.241295D-03  0.213359D-02 -0.202648D-02 -0.253259D-02 -0.183381D-03
                11            12 
      1  -0.214575D-02 -0.789181D-02
      2  -0.336414D-02 -0.859056D-03
      3  -0.285121D-03  0.595209D-02
               QM/MM-Pol results
 ---------------------------------------------
   MM (q) -- MM (q)            0.0000 kcal/mol
   MM (q) -- MM (dip)         -0.0252 kcal/mol
 Total MM Energy              -0.0252 kcal/mol
 ---------------------------------------------
   QM     -- MM (q)            0.0000 kcal/mol
   QM     -- MM (dip)          0.0000 kcal/mol
 Total QM/MM Energy            0.0000 kcal/mol
 ---------------------------------------------
 Total QM/MM + MM energy      -0.0252 kcal/mol
 ---------------------------------------------
 FoFPCM: IWhat = 4 DoEle= T DoNuc= F Delta=T   Init=T Scale=  1.000000
         MinMlt= 0 MaxMlt= 2 DoP2C= F NMatP=  0 NVecW=  1 NTs=      12
 PCMFMM: FMMI=F FMFlgI=      100000 FMFl1I=           0 NFxFlI=           0
         IHMeth=  1 Matrix=F
         UseFMM=F iWS= 2 IToler=13 Levels=10 Lmax=10 BoxLen=   0.0000
 PCMFMM: FMM=F FMFlag=    10101302 FMFlg1=           0 NFxFlg=    40000000
 FoFCou: FMM=F IPFlag=           0 FMFlag=    10101302 FMFlg1=           0
         NFxFlg=    40000000 DoJE=F BraDBF=F KetDBF=T FulRan=T
         wScrn=  0.000000 ICntrl=      1200 IOpCl=  0 I1Cent=    10000024 NGrid=          12
         NMat0=    1 NMatS0=      1 NMatT0=    0 NMatD0=    1 NMtDS0=    0 NMtDT0=    0
 Symmetry not used in FoFCou.
 FoFCou:  KetSym=T NOpSet=  1 NOpAb=1 NOp=  1.
 FoFCou:  CnvScl= 1.00D+00 Thresh= 1.00D-12 IAcrcy=      10.
 ShPair: Thresh= 1.00D-12 NBox=     0 BxSize= 0.00D+00 RnKept= 0.00D+00
         NSMCal=                    3 NSMKep=                   3
 FoFCou: LinMIO=F DoNuc=F BraDBF=F KetDBF=T HaveP=F PDBF=F HaveZ=F HaveW=T
         NIJTC =       1 NIJTAt=       0 NIJTCD=       1 NIJTT =       2
         IJTBeg=       1 IJTEnd=       1 KLTBeg=       2 KLTEnd=       2
         IPTBeg=       1 IPTEnd=       1 IPTBCv=       1 IPTECv=       1
         IZTBeg=       1 IZTEnd=       1 IZTBCv=       1 IZTECv=       1
         IWTBeg=       2 IWTEnd=       2 IWTBCv=       2 IWTECv=       2
         INTBeg=       1 INTEnd=       0 IFTBCv=       1 IFTECv=       1
 NCel replicated for PrismC:     1
 CoulSu-InSpLW:  IPartL=    0 NPrtUS=    1 NPrtUL=    1 DoSpLW=F IThBeg=    0 IThEnd=    0 NThAct=    1.
 CoulSu:  IncDef=  1024 NBBP=             36 NTPThr=   100 NPartT=    1 Incr=           1 LDynOK=F GPUOK=F.
 CoulSu:  NPrtUS=   1 ThrOK=F IAlg=1 NPAlg=1 LenDen=           0 LWGrdD=           0 DoCopy=F ISkipM=0
          DoSpLW=F IThBeg=    0 IThEnd=    0.
 CoulSu:  IPart=    0 IPartR=    0 CPU=   -1 GPU=   -1.
 Enter PrismC:  IPart=  0 JobTyp= 6 DoJE=F Cont=F.
 PrismC:  IPart=     0 DynPar=F LinDyn=F Incr=           1 UseFst=F UseS4=F ISplat=2.
 PrismC was handed   104842871 working-precision words and     3 shell-pairs
 IPart=  0 NShTot=          36 NShNF=          36 NShFF=           0 MinMC=     850
           NShCPU=          36 NBCPU=           3 AvBCPU=        12.0
           NShGPU=           0 NBGPU=           0 AvBGPU=         0.0
 CoulSu-ThDecC:  IPartSL=    0    0 NPrtUSL=    1    1 IThBeg=    0 IThEnd=    0 CPU=   -1 GPU=   -1 NThAct=    1.
 CoulSu:  NxtVal=              2 LenVP=      104842872 MinMC=     850.
 Timings for MMPQM: 
   QM Potential/Field:     0.0100    0.0180
   MM Potential/Field:     0.0000    0.0003
   MMPol equations:        0.0000    0.0012
   Fock Matrix:            0.0200    0.0127
 E= -2.88599381611822    
 DIIS: error= 4.13D-03 at cycle   1 NSaved=   1.
 NSaved= 1 IEnMin= 1 EnMin= -2.88599381611822     IErMin= 1 ErrMin= 4.13D-03
 ErrMax= 4.13D-03  0.00D+00 EMaxC= 1.00D-01 BMatC= 6.82D-05 BMatP= 6.82D-05
 IDIUse=3 WtCom= 9.59D-01 WtEn= 4.13D-02
 Coeff-Com:  0.100D+01
 Coeff-En:   0.100D+01
 Coeff:      0.100D+01
 Gap=     2.373 Goal=   None    Shift=    0.000
 GapD=    2.373 DampG=2.000 DampE=1.000 DampFc=2.0000 IDamp=-1.
 RMSDP=3.11D-03 MaxDP=4.82D-03              OVMax= 0.00D+00

 Cycle   2  Pass 0  IDiag  1:
       1      33      57      93     105     117     237     357     369     405
     417     429     441     537     549     837     849    1713    1725    4317
    4329    4341    4341   10197   10197   10197   10198   10198   10198   10198
   10198   10198   10198   10198   10198   10198   10318   10390   10462   11758
   11758   11757
       1      33      57      93     105     117     237     357     369     405
     417     429     441     537     549     837     849    1713    1725    4317
    4329    4341    4341   10197   10197   10197   10198   10198   10198   10198
   10198   10198   10198   10198   10198   10198   10318   10390   10462   11758
   11758   11757
 FoFPCM: IWhat = 3 DoEle= T DoNuc= T Delta=T   Init=T Scale=  1.000000
         MinMlt= 0 MaxMlt= 2 DoP2C= T NMatP=  1 NVecW=  0 NTs=      12
 PCMFMM: FMMI=F FMFlgI=      100000 FMFl1I=           0 NFxFlI=           0
         IHMeth=  1 Matrix=F
         UseFMM=F iWS= 2 IToler=13 Levels=10 Lmax=10 BoxLen=   0.0000
 PCMFMM: FMM=F FMFlag=    10101302 FMFlg1=           0 NFxFlg=    40000000
 ShPair: Thresh= 1.00D-12 NBox=     0 BxSize= 0.00D+00 RnKept= 0.00D+00
         NSMCal=                    3 NSMKep=                   3
 FoFCou: FMM=F IPFlag=           0 FMFlag=    10101302 FMFlg1=           0
         NFxFlg=    40000000 DoJE=F BraDBF=F KetDBF=T FulRan=T
         wScrn=  0.000000 ICntrl=      1100 IOpCl=  0 I1Cent=    10011024 NGrid=          12
         NMat0=    1 NMatS0=      1 NMatT0=    0 NMatD0=    1 NMtDS0=    0 NMtDT0=    0
 Symmetry not used in FoFCou.
 FoFCou:  KetSym=T NOpSet=  1 NOpAb=1 NOp=  1.
 FoFCou:  CnvScl= 1.00D+00 Thresh= 1.00D-12 IAcrcy=      10.
 ShPair: Thresh= 1.00D-12 NBox=     0 BxSize= 0.00D+00 RnKept= 0.00D+00
         NSMCal=                    3 NSMKep=                   3
 FoFCou: LinMIO=T DoNuc=T BraDBF=F KetDBF=T HaveP=T PDBF=F HaveZ=F HaveW=F
         NIJTC =       1 NIJTAt=       1 NIJTCD=       1 NIJTT =       3
         IJTBeg=       1 IJTEnd=       2 KLTBeg=       3 KLTEnd=       3
         IPTBeg=       1 IPTEnd=       1 IPTBCv=       1 IPTECv=       1
         IZTBeg=       1 IZTEnd=       1 IZTBCv=       3 IZTECv=       3
         IWTBeg=       3 IWTEnd=       3 IWTBCv=       3 IWTECv=       3
         INTBeg=       2 INTEnd=       2 IFTBCv=       3 IFTECv=       3
 NCel replicated for PrismC:     1
 CoulSu-InSpLW:  IPartL=    0 NPrtUS=    1 NPrtUL=    1 DoSpLW=F IThBeg=    0 IThEnd=    0 NThAct=    1.
 CoulSu:  IncDef=  1024 NBBP=             48 NTPThr=   100 NPartT=    1 Incr=           1 LDynOK=F GPUOK=F.
 CoulSu:  NPrtUS=   1 ThrOK=F IAlg=1 NPAlg=1 LenDen=           0 LWGrdD=           0 DoCopy=F ISkipM=0
          DoSpLW=F IThBeg=    0 IThEnd=    0.
 CoulSu:  IPart=    0 IPartR=    0 CPU=   -1 GPU=   -1.
 Enter PrismC:  IPart=  0 JobTyp= 6 DoJE=F Cont=F.
 PrismC:  IPart=     0 DynPar=F LinDyn=F Incr=           1 UseFst=F UseS4=F ISplat=2.
 PrismC was handed   104842700 working-precision words and     4 shell-pairs
 IPart=  0 NShTot=          48 NShNF=          48 NShFF=           0 MinMC=     958
           NShCPU=          48 NBCPU=           4 AvBCPU=        12.0
           NShGPU=           0 NBGPU=           0 AvBGPU=         0.0
 CoulSu-ThDecC:  IPartSL=    0    0 NPrtUSL=    1    1 IThBeg=    0 IThEnd=    0 CPU=   -1 GPU=   -1 NThAct=    1.
 CoulSu:  NxtVal=              2 LenVP=      104842701 MinMC=     958.
 VQM 
                 1             2             3             4             5 
      1   0.000000D+00  0.000000D+00  0.000000D+00  0.000000D+00  0.000000D+00
      2   0.000000D+00  0.000000D+00  0.000000D+00  0.000000D+00  0.000000D+00
      3   0.000000D+00  0.000000D+00  0.000000D+00  0.000000D+00  0.000000D+00
      4   0.000000D+00  0.000000D+00  0.000000D+00  0.000000D+00  0.000000D+00
      5   0.000000D+00  0.000000D+00  0.000000D+00  0.000000D+00  0.000000D+00
      6   0.000000D+00  0.000000D+00  0.000000D+00  0.000000D+00  0.000000D+00
      7   0.000000D+00  0.000000D+00  0.000000D+00  0.000000D+00  0.000000D+00
      8   0.000000D+00  0.000000D+00  0.000000D+00  0.000000D+00  0.000000D+00
      9   0.000000D+00  0.000000D+00  0.000000D+00  0.000000D+00  0.000000D+00
     10   0.000000D+00  0.000000D+00  0.000000D+00  0.000000D+00  0.000000D+00
                 6             7             8             9            10 
      1   0.000000D+00  0.000000D+00  0.000000D+00  0.000000D+00  0.000000D+00
      2   0.000000D+00  0.000000D+00  0.000000D+00  0.000000D+00  0.000000D+00
      3   0.000000D+00  0.000000D+00  0.000000D+00  0.000000D+00  0.000000D+00
      4   0.000000D+00  0.000000D+00  0.000000D+00  0.000000D+00  0.000000D+00
      5   0.000000D+00  0.000000D+00  0.000000D+00  0.000000D+00  0.000000D+00
      6   0.000000D+00  0.000000D+00  0.000000D+00  0.000000D+00  0.000000D+00
      7   0.000000D+00  0.000000D+00  0.000000D+00  0.000000D+00  0.000000D+00
      8   0.000000D+00  0.000000D+00  0.000000D+00  0.000000D+00  0.000000D+00
      9   0.000000D+00  0.000000D+00  0.000000D+00  0.000000D+00  0.000000D+00
     10   0.000000D+00  0.000000D+00  0.000000D+00  0.000000D+00  0.000000D+00
                11            12 
      1   0.000000D+00  0.000000D+00
      2   0.000000D+00  0.000000D+00
      3   0.000000D+00  0.000000D+00
      4   0.000000D+00  0.000000D+00
      5   0.000000D+00  0.000000D+00
      6   0.000000D+00  0.000000D+00
      7   0.000000D+00  0.000000D+00
      8   0.000000D+00  0.000000D+00
      9   0.000000D+00  0.000000D+00
     10   0.000000D+00  0.000000D+00
 EQM 
                 1             2             3             4             5 
      1   0.000000D+00  0.000000D+00  0.000000D+00  0.000000D+00  0.000000D+00
      2   0.000000D+00  0.000000D+00  0.000000D+00  0.000000D+00  0.000000D+00
      3   0.000000D+00  0.000000D+00  0.000000D+00  0.000000D+00  0.000000D+00
                 6             7             8             9            10 
      1   0.000000D+00  0.000000D+00  0.000000D+00  0.000000D+00  0.000000D+00
      2   0.000000D+00  0.000000D+00  0.000000D+00  0.000000D+00  0.000000D+00
      3   0.000000D+00  0.000000D+00  0.000000D+00  0.000000D+00  0.000000D+00
                11            12 
      1   0.000000D+00  0.000000D+00
      2   0.000000D+00  0.000000D+00
      3   0.000000D+00  0.000000D+00
 RHS for polarization          1
                 1             2             3             4             5 
      1   0.000000D+00  0.000000D+00  0.000000D+00  0.000000D+00  0.000000D+00
      2   0.000000D+00  0.000000D+00  0.000000D+00  0.000000D+00  0.000000D+00
      3   0.000000D+00  0.000000D+00  0.000000D+00  0.000000D+00  0.000000D+00
                 6             7             8             9            10 
      1  -0.207709D-02 -0.111743D-02 -0.150697D-03 -0.237877D-02 -0.686698D-03
      2  -0.288046D-03  0.945102D-03  0.239918D-03 -0.379307D-03 -0.193640D-04
      3  -0.313463D-04 -0.145257D-02 -0.347405D-03  0.510683D-04 -0.651256D-05
                11            12 
      1  -0.159807D-02 -0.287543D-02
      2  -0.138971D-02 -0.192775D-04
      3  -0.250518D-03  0.210044D-02
 RHS for polarization          2
                 1             2             3             4             5 
      1   0.000000D+00  0.000000D+00  0.000000D+00  0.000000D+00  0.000000D+00
      2   0.000000D+00  0.000000D+00  0.000000D+00  0.000000D+00  0.000000D+00
      3   0.000000D+00  0.000000D+00  0.000000D+00  0.000000D+00  0.000000D+00
                 6             7             8             9            10 
      1   0.000000D+00  0.000000D+00 -0.150697D-03 -0.237877D-02 -0.686698D-03
      2   0.000000D+00  0.000000D+00  0.239918D-03 -0.379307D-03 -0.193640D-04
      3   0.000000D+00  0.000000D+00 -0.347405D-03  0.510683D-04 -0.651256D-05
                11            12 
      1  -0.159807D-02 -0.287543D-02
      2  -0.138971D-02 -0.192775D-04
      3  -0.250518D-03  0.210044D-02
 Dipoles 
                 1             2             3             4             5 
      1  -0.141008D-02 -0.601070D-03 -0.477770D-03 -0.538681D-04  0.715598D-02
      2  -0.755778D-03 -0.264297D-03 -0.626912D-03  0.981695D-04 -0.239878D-02
      3   0.102407D-02  0.707161D-03  0.489120D-03 -0.794224D-04  0.474206D-02
                 6             7             8             9            10 
      1  -0.116569D-01 -0.419916D-02  0.104035D-03 -0.157231D-01 -0.142940D-02
      2  -0.150533D-02  0.680335D-02  0.292333D-03 -0.239093D-02  0.264024D-03
      3  -0.382189D-03 -0.932280D-02 -0.462003D-03 -0.233542D-02 -0.149152D-03
                11            12 
      1  -0.230535D-02 -0.819461D-02
      2  -0.242946D-02 -0.631389D-03
      3  -0.574277D-03  0.487893D-02
 P Dipoles 
                 1             2             3             4             5 
      1  -0.649035D-03 -0.674347D-03 -0.618356D-03 -0.226162D-03  0.199824D-03
      2  -0.908775D-03 -0.691794D-04 -0.517985D-03 -0.110457D-03 -0.107444D-02
      3   0.139803D-02  0.488752D-03  0.221618D-03  0.154524D-03  0.164990D-02
                 6             7             8             9            10 
      1   0.363170D-03  0.477272D-02  0.124349D-03 -0.182657D-01 -0.212393D-02
      2  -0.154734D-03 -0.675136D-03  0.153180D-02 -0.259372D-02  0.344665D-03
      3   0.241295D-03  0.213359D-02 -0.202648D-02 -0.253259D-02 -0.183381D-03
                11            12 
      1  -0.214575D-02 -0.789181D-02
      2  -0.336414D-02 -0.859056D-03
      3  -0.285121D-03  0.595209D-02
               QM/MM-Pol results
 ---------------------------------------------
   MM (q) -- MM (q)            0.0000 kcal/mol
   MM (q) -- MM (dip)         -0.0252 kcal/mol
 Total MM Energy              -0.0252 kcal/mol
 ---------------------------------------------
   QM     -- MM (q)            0.0000 kcal/mol
   QM     -- MM (dip)          0.0000 kcal/mol
 Total QM/MM Energy            0.0000 kcal/mol
 ---------------------------------------------
 Total QM/MM + MM energy      -0.0252 kcal/mol
 ---------------------------------------------
 FoFPCM: IWhat = 4 DoEle= T DoNuc= F Delta=T   Init=T Scale=  1.000000
         MinMlt= 0 MaxMlt= 2 DoP2C= F NMatP=  0 NVecW=  1 NTs=      12
 PCMFMM: FMMI=F FMFlgI=      100000 FMFl1I=           0 NFxFlI=           0
         IHMeth=  1 Matrix=F
         UseFMM=F iWS= 2 IToler=13 Levels=10 Lmax=10 BoxLen=   0.0000
 PCMFMM: FMM=F FMFlag=    10101302 FMFlg1=           0 NFxFlg=    40000000
 FoFCou: FMM=F IPFlag=           0 FMFlag=    10101302 FMFlg1=           0
         NFxFlg=    40000000 DoJE=F BraDBF=F KetDBF=T FulRan=T
         wScrn=  0.000000 ICntrl=      1200 IOpCl=  0 I1Cent=    10000024 NGrid=          12
         NMat0=    1 NMatS0=      1 NMatT0=    0 NMatD0=    1 NMtDS0=    0 NMtDT0=    0
 Symmetry not used in FoFCou.
 FoFCou:  KetSym=T NOpSet=  1 NOpAb=1 NOp=  1.
 FoFCou:  CnvScl= 1.00D+00 Thresh= 1.00D-12 IAcrcy=      10.
 ShPair: Thresh= 1.00D-12 NBox=     0 BxSize= 0.00D+00 RnKept= 0.00D+00
         NSMCal=                    3 NSMKep=                   3
 FoFCou: LinMIO=F DoNuc=F BraDBF=F KetDBF=T HaveP=F PDBF=F HaveZ=F HaveW=T
         NIJTC =       1 NIJTAt=       0 NIJTCD=       1 NIJTT =       2
         IJTBeg=       1 IJTEnd=       1 KLTBeg=       2 KLTEnd=       2
         IPTBeg=       1 IPTEnd=       1 IPTBCv=       1 IPTECv=       1
         IZTBeg=       1 IZTEnd=       1 IZTBCv=       1 IZTECv=       1
         IWTBeg=       2 IWTEnd=       2 IWTBCv=       2 IWTECv=       2
         INTBeg=       1 INTEnd=       0 IFTBCv=       1 IFTECv=       1
 NCel replicated for PrismC:     1
 CoulSu-InSpLW:  IPartL=    0 NPrtUS=    1 NPrtUL=    1 DoSpLW=F IThBeg=    0 IThEnd=    0 NThAct=    1.
 CoulSu:  IncDef=  1024 NBBP=             36 NTPThr=   100 NPartT=    1 Incr=           1 LDynOK=F GPUOK=F.
 CoulSu:  NPrtUS=   1 ThrOK=F IAlg=1 NPAlg=1 LenDen=           0 LWGrdD=           0 DoCopy=F ISkipM=0
          DoSpLW=F IThBeg=    0 IThEnd=    0.
 CoulSu:  IPart=    0 IPartR=    0 CPU=   -1 GPU=   -1.
 Enter PrismC:  IPart=  0 JobTyp= 6 DoJE=F Cont=F.
 PrismC:  IPart=     0 DynPar=F LinDyn=F Incr=           1 UseFst=F UseS4=F ISplat=2.
 PrismC was handed   104842871 working-precision words and     3 shell-pairs
 IPart=  0 NShTot=          36 NShNF=          36 NShFF=           0 MinMC=     850
           NShCPU=          36 NBCPU=           3 AvBCPU=        12.0
           NShGPU=           0 NBGPU=           0 AvBGPU=         0.0
 CoulSu-ThDecC:  IPartSL=    0    0 NPrtUSL=    1    1 IThBeg=    0 IThEnd=    0 CPU=   -1 GPU=   -1 NThAct=    1.
 CoulSu:  NxtVal=              2 LenVP=      104842872 MinMC=     850.
 Timings for MMPQM: 
   QM Potential/Field:     0.0200    0.0212
   MMPol equations:        0.0000    0.0001
   Fock Matrix:            0.0100    0.0255
 E= -2.88603918258203     Delta-E=       -0.000045366464 Rises=F Damp=F
 DIIS: error= 8.68D-04 at cycle   2 NSaved=   2.
 NSaved= 2 IEnMin= 2 EnMin= -2.88603918258203     IErMin= 2 ErrMin= 8.68D-04
 ErrMax= 8.68D-04  0.00D+00 EMaxC= 1.00D-01 BMatC= 3.01D-06 BMatP= 6.82D-05
 IDIUse=3 WtCom= 9.91D-01 WtEn= 8.68D-03
 Coeff-Com:  0.174D+00 0.826D+00
 Coeff-En:   0.000D+00 0.100D+01
 Coeff:      0.172D+00 0.828D+00
 Gap=     2.373 Goal=   None    Shift=    0.000
 RMSDP=5.42D-04 MaxDP=8.39D-04 DE=-4.54D-05 OVMax= 0.00D+00

 Cycle   3  Pass 0  IDiag  1:
       1      33      57      93     105     117     237     357     369     405
     417     429     441     537     549     837     849    1713    1725    4317
    4329    4341    4341   10197   10197   10197   10198   10198   10198   10198
   10198   10198   10198   10198   10198   10198   10318   10390   10462   11758
   11758   11757
       1      33      57      93     105     117     237     357     369     405
     417     429     441     537     549     837     849    1713    1725    4317
    4329    4341    4341   10197   10197   10197   10198   10198   10198   10198
   10198   10198   10198   10198   10198   10198   10318   10390   10462   11758
   11758   11757
 FoFPCM: IWhat = 3 DoEle= T DoNuc= T Delta=T   Init=T Scale=  1.000000
         MinMlt= 0 MaxMlt= 2 DoP2C= T NMatP=  1 NVecW=  0 NTs=      12
 PCMFMM: FMMI=F FMFlgI=      100000 FMFl1I=           0 NFxFlI=           0
         IHMeth=  1 Matrix=F
         UseFMM=F iWS= 2 IToler=13 Levels=10 Lmax=10 BoxLen=   0.0000
 PCMFMM: FMM=F FMFlag=    10101302 FMFlg1=           0 NFxFlg=    40000000
 ShPair: Thresh= 1.00D-12 NBox=     0 BxSize= 0.00D+00 RnKept= 0.00D+00
         NSMCal=                    3 NSMKep=                   3
 FoFCou: FMM=F IPFlag=           0 FMFlag=    10101302 FMFlg1=           0
         NFxFlg=    40000000 DoJE=F BraDBF=F KetDBF=T FulRan=T
         wScrn=  0.000000 ICntrl=      1100 IOpCl=  0 I1Cent=    10011024 NGrid=          12
         NMat0=    1 NMatS0=      1 NMatT0=    0 NMatD0=    1 NMtDS0=    0 NMtDT0=    0
 Symmetry not used in FoFCou.
 FoFCou:  KetSym=T NOpSet=  1 NOpAb=1 NOp=  1.
 FoFCou:  CnvScl= 1.00D+00 Thresh= 1.00D-12 IAcrcy=      10.
 ShPair: Thresh= 1.00D-12 NBox=     0 BxSize= 0.00D+00 RnKept= 0.00D+00
         NSMCal=                    3 NSMKep=                   3
 FoFCou: LinMIO=T DoNuc=T BraDBF=F KetDBF=T HaveP=T PDBF=F HaveZ=F HaveW=F
         NIJTC =       1 NIJTAt=       1 NIJTCD=       1 NIJTT =       3
         IJTBeg=       1 IJTEnd=       2 KLTBeg=       3 KLTEnd=       3
         IPTBeg=       1 IPTEnd=       1 IPTBCv=       1 IPTECv=       1
         IZTBeg=       1 IZTEnd=       1 IZTBCv=       3 IZTECv=       3
         IWTBeg=       3 IWTEnd=       3 IWTBCv=       3 IWTECv=       3
         INTBeg=       2 INTEnd=       2 IFTBCv=       3 IFTECv=       3
 NCel replicated for PrismC:     1
 CoulSu-InSpLW:  IPartL=    0 NPrtUS=    1 NPrtUL=    1 DoSpLW=F IThBeg=    0 IThEnd=    0 NThAct=    1.
 CoulSu:  IncDef=  1024 NBBP=             48 NTPThr=   100 NPartT=    1 Incr=           1 LDynOK=F GPUOK=F.
 CoulSu:  NPrtUS=   1 ThrOK=F IAlg=1 NPAlg=1 LenDen=           0 LWGrdD=           0 DoCopy=F ISkipM=0
          DoSpLW=F IThBeg=    0 IThEnd=    0.
 CoulSu:  IPart=    0 IPartR=    0 CPU=   -1 GPU=   -1.
 Enter PrismC:  IPart=  0 JobTyp= 6 DoJE=F Cont=F.
 PrismC:  IPart=     0 DynPar=F LinDyn=F Incr=           1 UseFst=F UseS4=F ISplat=2.
 PrismC was handed   104842700 working-precision words and     4 shell-pairs
 IPart=  0 NShTot=          48 NShNF=          48 NShFF=           0 MinMC=     958
           NShCPU=          48 NBCPU=           4 AvBCPU=        12.0
           NShGPU=           0 NBGPU=           0 AvBGPU=         0.0
 CoulSu-ThDecC:  IPartSL=    0    0 NPrtUSL=    1    1 IThBeg=    0 IThEnd=    0 CPU=   -1 GPU=   -1 NThAct=    1.
 CoulSu:  NxtVal=              2 LenVP=      104842701 MinMC=     958.
 VQM 
                 1             2             3             4             5 
      1   0.000000D+00  0.000000D+00  0.000000D+00  0.000000D+00  0.000000D+00
      2   0.000000D+00  0.000000D+00  0.000000D+00  0.000000D+00  0.000000D+00
      3   0.000000D+00  0.000000D+00  0.000000D+00  0.000000D+00  0.000000D+00
      4   0.000000D+00  0.000000D+00  0.000000D+00  0.000000D+00  0.000000D+00
      5   0.000000D+00  0.000000D+00  0.000000D+00  0.000000D+00  0.000000D+00
      6   0.000000D+00  0.000000D+00  0.000000D+00  0.000000D+00  0.000000D+00
      7   0.000000D+00  0.000000D+00  0.000000D+00  0.000000D+00  0.000000D+00
      8   0.000000D+00  0.000000D+00  0.000000D+00  0.000000D+00  0.000000D+00
      9   0.000000D+00  0.000000D+00  0.000000D+00  0.000000D+00  0.000000D+00
     10   0.000000D+00  0.000000D+00  0.000000D+00  0.000000D+00  0.000000D+00
                 6             7             8             9            10 
      1   0.000000D+00  0.000000D+00  0.000000D+00  0.000000D+00  0.000000D+00
      2   0.000000D+00  0.000000D+00  0.000000D+00  0.000000D+00  0.000000D+00
      3   0.000000D+00  0.000000D+00  0.000000D+00  0.000000D+00  0.000000D+00
      4   0.000000D+00  0.000000D+00  0.000000D+00  0.000000D+00  0.000000D+00
      5   0.000000D+00  0.000000D+00  0.000000D+00  0.000000D+00  0.000000D+00
      6   0.000000D+00  0.000000D+00  0.000000D+00  0.000000D+00  0.000000D+00
      7   0.000000D+00  0.000000D+00  0.000000D+00  0.000000D+00  0.000000D+00
      8   0.000000D+00  0.000000D+00  0.000000D+00  0.000000D+00  0.000000D+00
      9   0.000000D+00  0.000000D+00  0.000000D+00  0.000000D+00  0.000000D+00
     10   0.000000D+00  0.000000D+00  0.000000D+00  0.000000D+00  0.000000D+00
                11            12 
      1   0.000000D+00  0.000000D+00
      2   0.000000D+00  0.000000D+00
      3   0.000000D+00  0.000000D+00
      4   0.000000D+00  0.000000D+00
      5   0.000000D+00  0.000000D+00
      6   0.000000D+00  0.000000D+00
      7   0.000000D+00  0.000000D+00
      8   0.000000D+00  0.000000D+00
      9   0.000000D+00  0.000000D+00
     10   0.000000D+00  0.000000D+00
 EQM 
                 1             2             3             4             5 
      1   0.000000D+00  0.000000D+00  0.000000D+00  0.000000D+00  0.000000D+00
      2   0.000000D+00  0.000000D+00  0.000000D+00  0.000000D+00  0.000000D+00
      3   0.000000D+00  0.000000D+00  0.000000D+00  0.000000D+00  0.000000D+00
                 6             7             8             9            10 
      1   0.000000D+00  0.000000D+00  0.000000D+00  0.000000D+00  0.000000D+00
      2   0.000000D+00  0.000000D+00  0.000000D+00  0.000000D+00  0.000000D+00
      3   0.000000D+00  0.000000D+00  0.000000D+00  0.000000D+00  0.000000D+00
                11            12 
      1   0.000000D+00  0.000000D+00
      2   0.000000D+00  0.000000D+00
      3   0.000000D+00  0.000000D+00
 RHS for polarization          1
                 1             2             3             4             5 
      1   0.000000D+00  0.000000D+00  0.000000D+00  0.000000D+00  0.000000D+00
      2   0.000000D+00  0.000000D+00  0.000000D+00  0.000000D+00  0.000000D+00
      3   0.000000D+00  0.000000D+00  0.000000D+00  0.000000D+00  0.000000D+00
                 6             7             8             9            10 
      1  -0.207709D-02 -0.111743D-02 -0.150697D-03 -0.237877D-02 -0.686698D-03
      2  -0.288046D-03  0.945102D-03  0.239918D-03 -0.379307D-03 -0.193640D-04
      3  -0.313463D-04 -0.145257D-02 -0.347405D-03  0.510683D-04 -0.651256D-05
                11            12 
      1  -0.159807D-02 -0.287543D-02
      2  -0.138971D-02 -0.192775D-04
      3  -0.250518D-03  0.210044D-02
 RHS for polarization          2
                 1             2             3             4             5 
      1   0.000000D+00  0.000000D+00  0.000000D+00  0.000000D+00  0.000000D+00
      2   0.000000D+00  0.000000D+00  0.000000D+00  0.000000D+00  0.000000D+00
      3   0.000000D+00  0.000000D+00  0.000000D+00  0.000000D+00  0.000000D+00
                 6             7             8             9            10 
      1   0.000000D+00  0.000000D+00 -0.150697D-03 -0.237877D-02 -0.686698D-03
      2   0.000000D+00  0.000000D+00  0.239918D-03 -0.379307D-03 -0.193640D-04
      3   0.000000D+00  0.000000D+00 -0.347405D-03  0.510683D-04 -0.651256D-05
                11            12 
      1  -0.159807D-02 -0.287543D-02
      2  -0.138971D-02 -0.192775D-04
      3  -0.250518D-03  0.210044D-02
 Dipoles 
                 1             2             3             4             5 
      1  -0.141008D-02 -0.601070D-03 -0.477770D-03 -0.538681D-04  0.715598D-02
      2  -0.755778D-03 -0.264297D-03 -0.626912D-03  0.981695D-04 -0.239878D-02
      3   0.102407D-02  0.707161D-03  0.489120D-03 -0.794224D-04  0.474206D-02
                 6             7             8             9            10 
      1  -0.116569D-01 -0.419916D-02  0.104035D-03 -0.157231D-01 -0.142940D-02
      2  -0.150533D-02  0.680335D-02  0.292333D-03 -0.239093D-02  0.264024D-03
      3  -0.382189D-03 -0.932280D-02 -0.462003D-03 -0.233542D-02 -0.149152D-03
                11            12 
      1  -0.230535D-02 -0.819461D-02
      2  -0.242946D-02 -0.631389D-03
      3  -0.574277D-03  0.487893D-02
 P Dipoles 
                 1             2             3             4             5 
      1  -0.649035D-03 -0.674347D-03 -0.618356D-03 -0.226162D-03  0.199824D-03
      2  -0.908775D-03 -0.691794D-04 -0.517985D-03 -0.110457D-03 -0.107444D-02
      3   0.139803D-02  0.488752D-03  0.221618D-03  0.154524D-03  0.164990D-02
                 6             7             8             9            10 
      1   0.363170D-03  0.477272D-02  0.124349D-03 -0.182657D-01 -0.212393D-02
      2  -0.154734D-03 -0.675136D-03  0.153180D-02 -0.259372D-02  0.344665D-03
      3   0.241295D-03  0.213359D-02 -0.202648D-02 -0.253259D-02 -0.183381D-03
                11            12 
      1  -0.214575D-02 -0.789181D-02
      2  -0.336414D-02 -0.859056D-03
      3  -0.285121D-03  0.595209D-02
               QM/MM-Pol results
 ---------------------------------------------
   MM (q) -- MM (q)            0.0000 kcal/mol
   MM (q) -- MM (dip)         -0.0252 kcal/mol
 Total MM Energy              -0.0252 kcal/mol
 ---------------------------------------------
   QM     -- MM (q)            0.0000 kcal/mol
   QM     -- MM (dip)          0.0000 kcal/mol
 Total QM/MM Energy            0.0000 kcal/mol
 ---------------------------------------------
 Total QM/MM + MM energy      -0.0252 kcal/mol
 ---------------------------------------------
 FoFPCM: IWhat = 4 DoEle= T DoNuc= F Delta=T   Init=T Scale=  1.000000
         MinMlt= 0 MaxMlt= 2 DoP2C= F NMatP=  0 NVecW=  1 NTs=      12
 PCMFMM: FMMI=F FMFlgI=      100000 FMFl1I=           0 NFxFlI=           0
         IHMeth=  1 Matrix=F
         UseFMM=F iWS= 2 IToler=13 Levels=10 Lmax=10 BoxLen=   0.0000
 PCMFMM: FMM=F FMFlag=    10101302 FMFlg1=           0 NFxFlg=    40000000
 FoFCou: FMM=F IPFlag=           0 FMFlag=    10101302 FMFlg1=           0
         NFxFlg=    40000000 DoJE=F BraDBF=F KetDBF=T FulRan=T
         wScrn=  0.000000 ICntrl=      1200 IOpCl=  0 I1Cent=    10000024 NGrid=          12
         NMat0=    1 NMatS0=      1 NMatT0=    0 NMatD0=    1 NMtDS0=    0 NMtDT0=    0
 Symmetry not used in FoFCou.
 FoFCou:  KetSym=T NOpSet=  1 NOpAb=1 NOp=  1.
 FoFCou:  CnvScl= 1.00D+00 Thresh= 1.00D-12 IAcrcy=      10.
 ShPair: Thresh= 1.00D-12 NBox=     0 BxSize= 0.00D+00 RnKept= 0.00D+00
         NSMCal=                    3 NSMKep=                   3
 FoFCou: LinMIO=F DoNuc=F BraDBF=F KetDBF=T HaveP=F PDBF=F HaveZ=F HaveW=T
         NIJTC =       1 NIJTAt=       0 NIJTCD=       1 NIJTT =       2
[...]
      6   0.000000D+00  0.000000D+00  0.000000D+00  0.000000D+00  0.122034D-02
                 6             7             8             9            10 
      1   0.166172D-02  0.274348D-03  0.559636D-04  0.141092D-02  0.367472D-03
      2  -0.748990D-04 -0.694466D-03 -0.131196D-03  0.471134D-03  0.591718D-04
      3  -0.644852D-03 -0.322145D-03  0.619120D-05 -0.608770D-03 -0.139724D-03
      4   0.516320D-03  0.104914D-02  0.195911D-03 -0.227305D-03 -0.488684D-04
      5   0.272394D-03 -0.295777D-03 -0.109168D-03  0.000000D+00  0.509543D-05
      6  -0.687686D-03  0.135839D-03  0.126093D-03 -0.718836D-03 -0.145791D-03
                11            12 
      1   0.574986D-03  0.124492D-02
      2   0.102989D-02  0.246333D-03
      3   0.348484D-03 -0.113092D-02
      4   0.180153D-04 -0.183334D-02
      5   0.268770D-04 -0.161252D-03
      6  -0.628212D-03  0.320905D-03
 GMM@MM          2
                 1             2             3             4             5 
      1   0.000000D+00  0.000000D+00  0.000000D+00  0.000000D+00  0.000000D+00
      2   0.000000D+00  0.000000D+00  0.000000D+00  0.000000D+00  0.000000D+00
      3   0.000000D+00  0.000000D+00  0.000000D+00  0.000000D+00  0.000000D+00
      4   0.000000D+00  0.000000D+00  0.000000D+00  0.000000D+00  0.000000D+00
      5   0.000000D+00  0.000000D+00  0.000000D+00  0.000000D+00  0.000000D+00
      6   0.000000D+00  0.000000D+00  0.000000D+00  0.000000D+00  0.000000D+00
                 6             7             8             9            10 
      1   0.000000D+00  0.000000D+00  0.559636D-04  0.141092D-02  0.367472D-03
      2   0.000000D+00  0.000000D+00 -0.131196D-03  0.471134D-03  0.591718D-04
      3   0.000000D+00  0.000000D+00  0.619120D-05 -0.608770D-03 -0.139724D-03
      4   0.000000D+00  0.000000D+00  0.195911D-03 -0.227305D-03 -0.488684D-04
      5   0.000000D+00  0.000000D+00 -0.109168D-03  0.000000D+00  0.509543D-05
      6   0.000000D+00  0.000000D+00  0.126093D-03 -0.718836D-03 -0.145791D-03
                11            12 
      1   0.574986D-03  0.124492D-02
      2   0.102989D-02  0.246333D-03
      3   0.348484D-03 -0.113092D-02
      4   0.180153D-04 -0.183334D-02
      5   0.268770D-04 -0.161252D-03
      6  -0.628212D-03  0.320905D-03
 mu G(MM) 
                 1             2             3             4             5 
      1   0.000000D+00  0.000000D+00  0.000000D+00  0.000000D+00 -0.110426D-05
      2   0.000000D+00  0.000000D+00  0.000000D+00  0.000000D+00 -0.128123D-05
      3   0.000000D+00  0.000000D+00  0.000000D+00  0.000000D+00  0.148249D-05
                 6             7             8             9            10 
      1   0.000000D+00  0.200834D-05  0.000000D+00 -0.245986D-04  0.000000D+00
      2   0.000000D+00 -0.186403D-05  0.000000D+00 -0.648781D-05  0.000000D+00
      3   0.000000D+00  0.274837D-05  0.000000D+00  0.561414D-05  0.000000D+00
                11            12 
      1  -0.427077D-05 -0.201251D-04
      2  -0.331310D-05 -0.201179D-05
      3   0.000000D+00  0.166039D-04
 E(mu)@MM 
                 1             2             3             4             5 
      1  -0.183043D-03 -0.327464D-03 -0.286131D-03 -0.132613D-03  0.578723D-04
      2  -0.137788D-03  0.397982D-04 -0.272468D-03 -0.221580D-04 -0.115028D-03
      3   0.198859D-03  0.232360D-03  0.422395D-04  0.323727D-04  0.188731D-03
      4  -0.377135D-04 -0.134454D-03 -0.881143D-04 -0.213173D-04  0.846328D-04
      5  -0.764316D-04  0.189478D-05 -0.176531D-03  0.224005D-05 -0.744045D-05
      6   0.239688D-04  0.109046D-03 -0.168212D-04  0.236513D-04  0.537522D-05
      7   0.108659D-03  0.161605D-03  0.533460D-04 -0.393169D-05  0.147249D-04
      8   0.615781D-04 -0.843673D-05  0.375221D-04  0.367160D-04  0.834580D-04
      9  -0.191818D-04  0.215466D-04  0.101068D-03 -0.272681D-05 -0.685191D-04
     10   0.121351D-04 -0.700990D-04 -0.175907D-04  0.122702D-04  0.327599D-04
     11  -0.404865D-04 -0.627209D-05 -0.124790D-03  0.100942D-04  0.372420D-04
     12   0.555634D-04  0.121298D-03  0.440724D-04 -0.147833D-04 -0.519952D-04
     13   0.000000D+00  0.746889D-04 -0.558693D-04  0.478489D-05 -0.451190D-05
     14   0.486177D-04 -0.142046D-04  0.337784D-04  0.289326D-04  0.139108D-04
     15  -0.349916D-04 -0.115586D-04  0.671839D-04 -0.175348D-04 -0.188553D-04
     16   0.500445D-04  0.000000D+00  0.707786D-04 -0.102961D-04  0.324645D-04
     17  -0.112621D-04 -0.456143D-04  0.365776D-05  0.513803D-05  0.150143D-04
     18  -0.842236D-05  0.153993D-04  0.537657D-04 -0.133997D-05 -0.534637D-04
     19  -0.499178D-04 -0.803433D-04 -0.581606D-04  0.117871D-04  0.184226D-04
                 6             7             8             9            10 
      1   0.740107D-04  0.371836D-03  0.149394D-03 -0.131656D-03 -0.518806D-04
      2  -0.494520D-04 -0.146181D-04  0.807159D-04 -0.215689D-04  0.289043D-04
      3   0.875841D-04  0.114983D-03 -0.831999D-04 -0.490111D-05 -0.610600D-04
      4   0.254625D-04  0.487844D-04 -0.110514D-03  0.841522D-05  0.531806D-04
      5   0.141887D-04  0.103716D-03  0.550591D-04  0.373551D-04  0.621942D-05
      6   0.169026D-05  0.346101D-04  0.272340D-04 -0.157847D-04 -0.563326D-05
      7  -0.172638D-04 -0.153596D-03 -0.941658D-04 -0.435234D-04 -0.255897D-05
      8   0.284311D-04  0.363462D-04 -0.844812D-04  0.854031D-05  0.327914D-04
      9  -0.253816D-04 -0.381056D-04  0.554391D-04 -0.385042D-04 -0.446421D-04
     10  -0.248628D-05 -0.187326D-03 -0.504728D-05  0.442848D-04 -0.213954D-04
     11   0.877293D-05  0.112904D-04 -0.692648D-04 -0.501792D-05 -0.230786D-04
     12  -0.111178D-04 -0.229551D-04  0.996426D-04  0.664536D-05  0.331311D-04
     13   0.000000D+00 -0.319154D-04 -0.991089D-05  0.144633D-04  0.565361D-05
     14  -0.395693D-05 -0.406053D-04 -0.163056D-04  0.118986D-04 -0.345183D-05
     15   0.000000D+00  0.161280D-04  0.313310D-04  0.946248D-05  0.144008D-04
     16   0.833702D-05  0.256047D-04 -0.124390D-04  0.266172D-05 -0.135834D-04
     17   0.459589D-05 -0.137214D-04 -0.218744D-04  0.000000D+00 -0.691233D-05
     18  -0.150621D-04 -0.163493D-04  0.354617D-04  0.105112D-04  0.309379D-04
     19   0.322226D-05 -0.574896D-04 -0.151239D-04  0.000000D+00 -0.167327D-04
                11            12 
      1  -0.922714D-04 -0.102147D-03
      2  -0.730849D-04 -0.278287D-04
      3   0.000000D+00  0.104043D-03
      4  -0.977351D-05 -0.154035D-04
      5   0.517961D-04  0.167048D-04
      6   0.302423D-04 -0.333064D-04
      7  -0.188843D-04 -0.539289D-04
      8  -0.844012D-05 -0.218064D-04
      9  -0.271694D-04  0.388796D-04
     10   0.221495D-04  0.144800D-04
     11   0.835550D-05  0.000000D+00
     12  -0.367620D-05 -0.127781D-04
     13  -0.290515D-04  0.109821D-04
     14   0.190502D-04  0.139614D-04
     15   0.753578D-05 -0.288484D-04
     16  -0.547186D-05  0.223905D-04
     17   0.818075D-05 -0.197754D-04
     18   0.176438D-04 -0.143304D-04
     19  -0.127652D-04  0.116099D-05
 q E(mu) 
                 1             2             3             4             5 
      1   0.358722D-04  0.000000D+00  0.000000D+00  0.000000D+00  0.000000D+00
      2   0.685693D-05  0.000000D+00  0.000000D+00  0.000000D+00  0.000000D+00
      3  -0.147396D-04  0.000000D+00  0.000000D+00  0.000000D+00  0.000000D+00
                 6             7             8             9            10 
      1   0.000000D+00  0.000000D+00  0.000000D+00  0.000000D+00  0.000000D+00
      2   0.000000D+00  0.000000D+00  0.000000D+00  0.000000D+00  0.000000D+00
      3   0.000000D+00  0.000000D+00  0.000000D+00  0.000000D+00  0.000000D+00
                11            12 
      1   0.000000D+00  0.000000D+00
      2   0.000000D+00  0.000000D+00
      3   0.000000D+00  0.000000D+00
 GMM@MM          1
                 1             2             3             4             5 
      1  -0.194787D-03 -0.191714D-03 -0.154037D-03  0.170902D-03  0.170600D-03
      2  -0.737559D-04 -0.107733D-03 -0.154286D-03  0.693715D-04 -0.161458D-03
      3  -0.436271D-04  0.970960D-04 -0.569691D-04  0.143574D-04 -0.134223D-03
      4   0.785606D-04  0.187687D-03  0.158303D-03 -0.782501D-04  0.241454D-03
      5   0.113124D-03 -0.939776D-05  0.651112D-04  0.339718D-04  0.195113D-03
      6  -0.114150D-03 -0.231981D-04  0.949414D-04 -0.953982D-05 -0.207263D-03
                 6             7             8             9            10 
      1   0.153598D-03  0.153744D-03 -0.618392D-03  0.717968D-04 -0.102413D-02
      2   0.272722D-04  0.186776D-03  0.206880D-03 -0.525432D-04 -0.996266D-04
      3   0.795317D-04  0.932971D-04 -0.195963D-03  0.329021D-03 -0.296935D-03
      4  -0.148658D-04 -0.258612D-03 -0.344710D-03 -0.554130D-04  0.343876D-03
      5  -0.681633D-04 -0.259799D-05 -0.488638D-04 -0.287415D-04  0.137802D-03
      6   0.118088D-03  0.492019D-05 -0.275092D-03  0.458775D-03 -0.257667D-03
                11            12 
      1   0.432475D-03  0.760432D-03
      2  -0.361931D-03  0.160519D-03
      3  -0.283915D-03  0.388407D-03
      4  -0.156184D-03  0.162068D-03
      5  -0.502339D-05 -0.163301D-04
      6   0.250711D-03  0.109081D-03
 GMM@MM          2
                 1             2             3             4             5 
      1  -0.467076D-04 -0.131920D-03 -0.109341D-03  0.865002D-04 -0.528144D-05
      2  -0.680216D-04 -0.459810D-04 -0.136860D-03  0.107191D-04 -0.375025D-04
      3  -0.104884D-04  0.498839D-04 -0.327203D-04  0.411630D-04 -0.407997D-04
      4   0.100458D-03  0.146644D-03  0.905832D-04 -0.104722D-04  0.450074D-04
      5   0.503137D-04  0.209198D-04  0.550791D-04 -0.884695D-05  0.107924D-03
      6  -0.429837D-04 -0.308157D-04  0.308549D-04  0.496868D-04 -0.120109D-03
                 6             7             8             9            10 
      1   0.318016D-04  0.118389D-03  0.118000D-03 -0.225142D-04 -0.105340D-02
      2   0.771470D-05  0.173256D-03  0.484505D-05  0.147952D-04 -0.363540D-04
      3   0.513640D-04  0.918038D-04  0.181485D-03  0.177351D-03 -0.401005D-03
      4  -0.116179D-04 -0.259978D-03  0.170809D-05 -0.147350D-03  0.254518D-03
      5  -0.166114D-04  0.608711D-04 -0.152099D-03  0.867482D-04  0.166832D-03
      6   0.606299D-04 -0.326359D-04  0.266824D-03  0.213189D-03 -0.397990D-03
                11            12 
      1   0.330359D-03  0.675110D-03
      2  -0.375125D-03  0.163634D-03
      3  -0.856157D-04  0.293940D-03
      4  -0.179158D-03  0.230906D-03
      5  -0.115465D-03 -0.830933D-04
      6   0.161312D-03  0.382696D-03
 mu G(MM) 
                 1             2             3             4             5 
      1   0.000000D+00  0.000000D+00  0.000000D+00  0.000000D+00  0.000000D+00
      2   0.000000D+00  0.000000D+00  0.000000D+00  0.000000D+00  0.000000D+00
      3   0.000000D+00  0.000000D+00  0.000000D+00  0.000000D+00  0.000000D+00
                 6             7             8             9            10 
      1   0.000000D+00  0.158061D-05  0.000000D+00  0.000000D+00  0.176798D-05
      2   0.000000D+00  0.000000D+00  0.000000D+00  0.000000D+00  0.000000D+00
      3   0.000000D+00  0.000000D+00  0.000000D+00  0.000000D+00  0.000000D+00
                11            12 
      1   0.000000D+00 -0.484172D-05
      2   0.143614D-05 -0.181478D-05
      3   0.000000D+00  0.000000D+00
 Total MMP Forces
 I=    1 X=   4.202083614004D-05 Y=   1.725292548647D-05 Z=  -2.133200112675D-05
 I=    2 X=   2.118069240700D-07 Y=   4.529341888202D-08 Z=  -1.263592238976D-07
 I=    3 X=   1.962980430759D-07 Y=   1.260918356409D-07 Z=  -8.664485890637D-08
 I=    4 X=  -3.059055806020D-08 Y=   0.000000000000D+00 Z=   0.000000000000D+00
 I=    5 X=  -5.533200092336D-06 Y=  -1.790259041009D-05 Z=   2.174498642436D-06
 I=    6 X=  -8.173735436360D-07 Y=   6.792732110567D-06 Z=   5.202202548531D-06
 I=    7 X=   3.588945122410D-06 Y=  -1.787805176540D-06 Z=   3.042397355491D-06
 I=    8 X=   1.186980254477D-07 Y=   1.006959991455D-07 Z=  -9.799007492294D-08
 I=    9 X=  -2.478467521648D-05 Y=  -6.827867959383D-06 Z=   6.382296351637D-06
 I=   10 X=   1.141238545582D-06 Y=  -1.459037813286D-07 Z=  -3.353969157113D-07
 I=   11 X=  -3.977380611107D-06 Y=  -1.876958040728D-06 Z=   5.927155045536D-07
 I=   12 X=  -2.496685427780D-05 Y=  -3.826569470085D-06 Z=   1.630978795118D-05
 QM/MM Forces
 I=    1 X=   0.000000000000D+00 Y=   0.000000000000D+00 Z=   0.000000000000D+00
 I=    2 X=   0.000000000000D+00 Y=   0.000000000000D+00 Z=   0.000000000000D+00
 I=    3 X=   0.000000000000D+00 Y=   0.000000000000D+00 Z=   0.000000000000D+00
 I=    4 X=   0.000000000000D+00 Y=   0.000000000000D+00 Z=   0.000000000000D+00
 I=    5 X=   0.000000000000D+00 Y=   0.000000000000D+00 Z=   0.000000000000D+00
 I=    6 X=   0.000000000000D+00 Y=   0.000000000000D+00 Z=   0.000000000000D+00
 I=    7 X=   0.000000000000D+00 Y=   0.000000000000D+00 Z=   0.000000000000D+00
 I=    8 X=   0.000000000000D+00 Y=   0.000000000000D+00 Z=   0.000000000000D+00
 I=    9 X=   0.000000000000D+00 Y=   0.000000000000D+00 Z=   0.000000000000D+00
 I=   10 X=   0.000000000000D+00 Y=   0.000000000000D+00 Z=   0.000000000000D+00
 I=   11 X=   0.000000000000D+00 Y=   0.000000000000D+00 Z=   0.000000000000D+00
 I=   12 X=   0.000000000000D+00 Y=   0.000000000000D+00 Z=   0.000000000000D+00
 Multi Forces
 I=    1 X=   0.000000000000D+00 Y=   0.000000000000D+00 Z=   0.000000000000D+00
 I=    2 X=   0.000000000000D+00 Y=   0.000000000000D+00 Z=   0.000000000000D+00
 I=    3 X=   0.000000000000D+00 Y=   0.000000000000D+00 Z=   0.000000000000D+00
 I=    4 X=   0.000000000000D+00 Y=   0.000000000000D+00 Z=   0.000000000000D+00
 I=    5 X=   0.000000000000D+00 Y=   0.000000000000D+00 Z=   0.000000000000D+00
 I=    6 X=   0.000000000000D+00 Y=   0.000000000000D+00 Z=   0.000000000000D+00
 I=    7 X=   0.000000000000D+00 Y=   0.000000000000D+00 Z=   0.000000000000D+00
 I=    8 X=   0.000000000000D+00 Y=   0.000000000000D+00 Z=   0.000000000000D+00
 I=    9 X=   0.000000000000D+00 Y=   0.000000000000D+00 Z=   0.000000000000D+00
 I=   10 X=   0.000000000000D+00 Y=   0.000000000000D+00 Z=   0.000000000000D+00
 I=   11 X=   0.000000000000D+00 Y=   0.000000000000D+00 Z=   0.000000000000D+00
 I=   12 X=   0.000000000000D+00 Y=   0.000000000000D+00 Z=   0.000000000000D+00
 Polar Forces
 I=    1 X=   4.202083614004D-05 Y=   1.725292548647D-05 Z=  -2.133200112675D-05
 I=    2 X=   2.118069240700D-07 Y=   4.529341888202D-08 Z=  -1.263592238976D-07
 I=    3 X=   1.962980430759D-07 Y=   1.260918356409D-07 Z=  -8.664485890637D-08
 I=    4 X=  -3.059055806020D-08 Y=   0.000000000000D+00 Z=   0.000000000000D+00
 I=    5 X=  -5.533200092336D-06 Y=  -1.790259041009D-05 Z=   2.174498642436D-06
 I=    6 X=  -8.173735436360D-07 Y=   6.792732110567D-06 Z=   5.202202548531D-06
 I=    7 X=   3.588945122410D-06 Y=  -1.787805176540D-06 Z=   3.042397355491D-06
 I=    8 X=   1.186980254477D-07 Y=   1.006959991455D-07 Z=  -9.799007492294D-08
 I=    9 X=  -2.478467521648D-05 Y=  -6.827867959383D-06 Z=   6.382296351637D-06
 I=   10 X=   1.141238545582D-06 Y=  -1.459037813286D-07 Z=  -3.353969157113D-07
 I=   11 X=  -3.977380611107D-06 Y=  -1.876958040728D-06 Z=   5.927155045536D-07
 I=   12 X=  -2.496685427780D-05 Y=  -3.826569470085D-06 Z=   1.630978795118D-05
 TMMQM =    3.4397125244140625E-002
 TQMMM =    3.2322883605957031E-002
 TMMMM =    9.4914436340332031E-004
 Leave Link  701 at Thu Apr 15 11:42:24 2021, MaxMem=   104857600 cpu:               0.1 elap:               0.3
 (Enter /software/gaussian/g16A03m/g16/l702.exe)
 L702 exits ... SP integral derivatives will be done elsewhere.
 Leave Link  702 at Thu Apr 15 11:42:25 2021, MaxMem=   104857600 cpu:               0.1 elap:               0.2
 (Enter /software/gaussian/g16A03m/g16/l703.exe)
 Integral derivatives from FoFJK, PRISM(SPDF).
 Compute integral first derivatives, UseDBF=F ICtDFT=           0.
 Calling FoFJK, ICntrl=      2127 FMM=F ISym2X=0 I1Cent= 0 IOpClX= 0 NMat=1 NMatS=1 NMatT=0.
 FoFJK:  IHMeth= 1 ICntrl=    2127 DoSepK=F KAlg= 0 I1Cent=           0 FoldK=F
 IRaf=         0 NMat=       1 IRICut=       1 DoRegI=T DoRafI=F ISym2E= 0 IDoP0=0 IntGTp=1.
 FoFCou: FMM=F IPFlag=           0 FMFlag=      100000 FMFlg1=         800
         NFxFlg=           0 DoJE=F BraDBF=F KetDBF=F FulRan=T
         wScrn=  0.000000 ICntrl=      2127 IOpCl=  0 I1Cent=           0 NGrid=           0
         NMat0=    1 NMatS0=      1 NMatT0=    0 NMatD0=    1 NMtDS0=    0 NMtDT0=    0
 Symmetry not used in FoFCou.
 Leave Link  703 at Thu Apr 15 11:42:25 2021, MaxMem=   104857600 cpu:               0.1 elap:               0.2
 (Enter /software/gaussian/g16A03m/g16/l716.exe)
 Dipole        =-3.63797881D-11-3.63797881D-11-3.63797881D-11
 -------------------------------------------------------------------
 Center     Atomic                   Forces (Hartrees/Bohr)
 Number     Number              X              Y              Z
 -------------------------------------------------------------------
      1        2           0.000000000    0.000000000    0.000000000
 -------------------------------------------------------------------
 Cartesian Forces:  Max     0.000000000 RMS     0.000000000
 Z-matrix is all fixed cartesians, so copy forces.
 Force constants in Cartesian coordinates: 
                1             2             3 
      1  0.100000D+01
      2  0.000000D+00  0.100000D+01
      3  0.000000D+00  0.000000D+00  0.100000D+01
 Leave Link  716 at Thu Apr 15 11:42:25 2021, MaxMem=   104857600 cpu:               0.1 elap:               0.2
 (Enter /software/gaussian/g16A03m/g16/l103.exe)

 GradGradGradGradGradGradGradGradGradGradGradGradGradGradGradGradGradGrad
 Berny optimization.
 Search for a local minimum.
 Step number   1 out of a maximum of    2
 All quantities printed in internal units (Hartrees-Bohrs-Radians)
 Second derivative matrix not updated -- first step.
 The second derivative matrix:
                          X1        Y1        Z1
           X1           1.00000
           Y1           0.00000   1.00000
           Z1           0.00000   0.00000   1.00000
 ITU=  0
     Eigenvalues ---    1.00000   1.00000   1.00000
 Angle between quadratic step and forces=  90.00 degrees.
 Linear search not attempted -- first point.
 B after Tr=     0.000000    0.000000    0.000000
         Rot=    1.000000    0.000000    0.000000    0.000000 Ang=   0.00 deg.
 Variable       Old X    -DE/DX   Delta X   Delta X   Delta X     New X
                                 (Linear)    (Quad)   (Total)
    X1     **********   0.00000   0.00000   0.00000   0.00000**********
    Y1     **********   0.00000   0.00000   0.00000   0.00000**********
    Z1     **********   0.00000   0.00000   0.00000   0.00000**********
         Item               Value     Threshold  Converged?
 Maximum Force            0.000000     0.000450     YES
 RMS     Force            0.000000     0.000300     YES
 Maximum Displacement     0.000000     0.001800     YES
 RMS     Displacement     0.000000     0.001200     YES
 Predicted change in Energy= 0.000000D+00
 Optimization completed.
    -- Stationary point found.
 GradGradGradGradGradGradGradGradGradGradGradGradGradGradGradGradGradGrad

 Leave Link  103 at Thu Apr 15 11:42:26 2021, MaxMem=   104857600 cpu:               0.1 elap:               0.2
 (Enter /software/gaussian/g16A03m/g16/l9999.exe)
 1\1\GINC-NODE12\Force\RB3LYP\3-21G\He1\SLAMAV\15-Apr-2021\0\\#p #p b3l
 yp/3-21G nosymm mmpol force int(grid=finegrid)\\test amoeba\\0,1\He,10
 000.,10000.,10000.\\Version=ES64L-G16RevA.03\HF=-2.8860416\RMSD=3.716e
 -14\RMSF=8.067e-28\Dipole=0.,0.,0.\Quadrupole=0.,0.,0.,-0.0000006,-0.0
 000006,-0.0000006\PG=OH [O(He1)]\\@


 FRICTION IS A DRAG,
 AND ENTROPY AIN'T WHAT IT USED TO BE.
 Job cpu time:       0 days  0 hours  0 minutes  2.5 seconds.
 Elapsed time:       0 days  0 hours  0 minutes  4.4 seconds.
 File lengths (MBytes):  RWF=     17 Int=      0 D2E=      0 Chk=      2 Scr=      2
 Normal termination of Gaussian 16 at Thu Apr 15 11:42:26 2021.
